CH4
        SP                           RHF                        STO-3G
Number of atoms                            I                5
Charge                                     I                0
Multiplicity                               I                1
Number of electrons                        I               10
Number of alpha electrons                  I                5
Number of beta electrons                   I                5
Number of basis functions                  I                9
Number of independent functions            I                9
Atomic numbers                             I   N=           5
           6           1           1           1           1
Nuclear charges                            R   N=           5
  6.00000000e+00  1.00000000e+00  1.00000000e+00  1.00000000e+00  1.00000000e+00
Current cartesian coordinates              R   N=          15
  0.00000000e+00  0.00000000e+00  0.00000000e+00  1.68098760e+00  5.14654022e-17
  1.18863773e+00 -1.68098760e+00 -5.14654022e-17  1.18863773e+00 -5.14654022e-17
  1.68098760e+00 -1.18863773e+00  5.14654022e-17 -1.68098760e+00 -1.18863773e+00
Integer atomic weights                     I   N=           5
          12           1           1           1           1
Real atomic weights                        R   N=           5
  1.20000000e+01  1.00782503e+00  1.00782503e+00  1.00782503e+00  1.00782503e+00
Number of primitive shells                 I               21
Number of contracted shells                I                7
Pure/Cartesian d shells                    I                0
Pure/Cartesian f shells                    I                0
Highest angular momentum                   I                1
Largest degree of contraction              I                3
Shell types                                I   N=           7
           0           0           1           0           0           0
           0
Number of primitives per shell             I   N=           7
           3           3           3           3           3           3
           3
Shell to atom map                          I   N=           7
           1           1           1           2           3           4
           5
Primitive exponents                        R   N=          21
  7.16168370e+01  1.30450960e+01  3.53051220e+00  2.94124940e+00  6.83483100e-01
  2.22289900e-01  2.94124940e+00  6.83483100e-01  2.22289900e-01  3.42525091e+00
  6.23913730e-01  1.68855400e-01  3.42525091e+00  6.23913730e-01  1.68855400e-01
  3.42525091e+00  6.23913730e-01  1.68855400e-01  3.42525091e+00  6.23913730e-01
  1.68855400e-01
Contraction coefficients                   R   N=          21
  1.54328970e-01  5.35328140e-01  4.44634540e-01 -9.99672301e-02  3.99512830e-01
  7.00115471e-01  1.55916272e-01  6.07683728e-01  3.91957395e-01  1.54328971e-01
  5.35328142e-01  4.44634542e-01  1.54328971e-01  5.35328142e-01  4.44634542e-01
  1.54328971e-01  5.35328142e-01  4.44634542e-01  1.54328971e-01  5.35328142e-01
  4.44634542e-01
Coordinates of each shell                  R   N=          21
  0.00000000e+00  0.00000000e+00  0.00000000e+00  0.00000000e+00  0.00000000e+00
  0.00000000e+00  0.00000000e+00  0.00000000e+00  0.00000000e+00  1.68098760e+00
  5.14654022e-17  1.18863773e+00 -1.68098760e+00 -5.14654022e-17  1.18863773e+00
 -5.14654022e-17  1.68098760e+00 -1.18863773e+00  5.14654022e-17 -1.68098760e+00
 -1.18863773e+00
Total Energy                               R     -3.972687126500877e+01
Alpha Orbital Energies                     R   N=           9
 -1.10304331e+01 -9.08781681e-01 -5.17963776e-01 -5.17963776e-01 -5.17963776e-01
  7.13490992e-01  7.13490992e-01  7.13490992e-01  7.51274964e-01
Alpha MO coefficients                      R   N=          81
  9.91957070e-01  3.80479725e-02  0.00000000e+00  0.00000000e+00  0.00000000e+00
 -6.92763919e-03 -6.92763919e-03 -6.92763919e-03 -6.92763919e-03  2.21184099e-01
 -6.29386976e-01  0.00000000e+00  0.00000000e+00  0.00000000e+00 -1.80748337e-01
 -1.80748337e-01 -1.80748337e-01 -1.80748337e-01  0.00000000e+00  0.00000000e+00
  5.71162120e-01  0.00000000e+00  0.00000000e+00  4.26379634e-01 -4.26379634e-01
  0.00000000e+00  0.00000000e+00  0.00000000e+00  0.00000000e+00  0.00000000e+00
  5.71162120e-01  0.00000000e+00  0.00000000e+00  0.00000000e+00  4.26379634e-01
 -4.26379634e-01  0.00000000e+00  0.00000000e+00  0.00000000e+00  0.00000000e+00
  5.71162120e-01  3.01495930e-01  3.01495930e-01 -3.01495930e-01 -3.01495930e-01
  0.00000000e+00  0.00000000e+00  1.10190116e+00  0.00000000e+00  0.00000000e+00
 -8.63481797e-01  8.63481797e-01  0.00000000e+00  0.00000000e+00  0.00000000e+00
  0.00000000e+00  0.00000000e+00  1.10190116e+00  0.00000000e+00  0.00000000e+00
  0.00000000e+00 -8.63481797e-01  8.63481797e-01  0.00000000e+00 -4.86710388e-12
  0.00000000e+00  0.00000000e+00  1.10190116e+00 -6.10573834e-01 -6.10573834e-01
  6.10573834e-01  6.10573834e-01  2.51725921e-01 -1.61599810e+00  0.00000000e+00
  0.00000000e+00 -3.32203810e-12  6.63381100e-01  6.63381100e-01  6.63381100e-01
  6.63381100e-01
Total SCF Density                          R   N=          45
  2.06580247e+00 -2.02936872e-01  7.95151227e-01  0.00000000e+00  0.00000000e+00
  6.52452334e-01  0.00000000e+00  0.00000000e+00  0.00000000e+00  6.52452334e-01
  0.00000000e+00  0.00000000e+00  0.00000000e+00  0.00000000e+00  6.52452334e-01
 -9.37011577e-02  2.26994133e-01  4.87063791e-01  0.00000000e+00  3.44406109e-01
  6.10834683e-01 -9.37011577e-02  2.26994133e-01 -4.87063791e-01  0.00000000e+00
  3.44406109e-01 -1.16363685e-01  6.10834683e-01 -9.37011577e-02  2.26994133e-01
  0.00000000e+00  4.87063791e-01 -3.44406109e-01 -1.16363685e-01 -1.16363685e-01
  6.10834683e-01 -9.37011577e-02  2.26994133e-01  0.00000000e+00 -4.87063791e-01
 -3.44406109e-01 -1.16363685e-01 -1.16363685e-01 -1.16363685e-01  6.10834683e-01
