Generated by Psi4
        SP                           RHF                        STO-3G
Number of atoms                            I                2
Charge                                     I                0
Multiplicity                               I                1
Number of electrons                        I               18
Number of alpha electrons                  I                9
Number of beta electrons                   I                9
Number of basis functions                  I               10
Number of independent functions            I               10
Atomic numbers                             I   N=           2
           1          17
Nuclear charges                            R   N=           2
  1.00000000e+00  1.70000000e+01
Current cartesian coordinates              R   N=           6
  0.00000000e+00  0.00000000e+00 -2.33272163e+00  0.00000000e+00  0.00000000e+00
  6.72305515e-02
Integer atomic weights                     I   N=           2
           1          35
Real atomic weights                        R   N=           2
  1.00782503e+00  3.49688527e+01
Number of primitive shells                 I               18
Number of contracted shells                I                6
Pure/Cartesian d shells                    I                0
Pure/Cartesian f shells                    I                0
Highest angular momentum                   I                1
Largest degree of contraction              I                3
Shell types                                I   N=           6
           0           0           0           1           0           1
Number of primitives per shell             I   N=           6
           3           3           3           3           3           3
Shell to atom map                          I   N=           6
           1           2           2           2           2           2
Primitive exponents                        R   N=          18
  3.42525091e+00  6.23913730e-01  1.68855400e-01  6.01345614e+02  1.09535854e+02
  2.96446769e+01  3.89604189e+01  9.05356348e+00  2.94449983e+00  3.89604189e+01
  9.05356348e+00  2.94449983e+00  2.12938649e+00  5.94093427e-01  2.32524141e-01
  2.12938649e+00  5.94093427e-01  2.32524141e-01
Contraction coefficients                   R   N=          18
  1.54328971e-01  5.35328142e-01  4.44634542e-01  1.54328967e-01  5.35328142e-01
  4.44634542e-01 -9.99672292e-02  3.99512826e-01  7.00115469e-01  1.55916275e-01
  6.07683719e-01  3.91957393e-01 -2.19620369e-01  2.25595434e-01  9.00398426e-01
  1.05876043e-02  5.95167005e-01  4.62001012e-01
Coordinates of each shell                  R   N=          18
  0.00000000e+00  0.00000000e+00 -2.33272163e+00  0.00000000e+00  0.00000000e+00
  6.72305515e-02  0.00000000e+00  0.00000000e+00  6.72305515e-02  0.00000000e+00
  0.00000000e+00  6.72305515e-02  0.00000000e+00  0.00000000e+00  6.72305515e-02
  0.00000000e+00  0.00000000e+00  6.72305515e-02
Total Energy                               R     -4.551347481178348e+02
Alpha Orbital Energies                     R   N=          10
 -1.03723385e+02 -1.04045704e+01 -7.84939097e+00 -7.84263606e+00 -7.84263606e+00
 -1.04489515e+00 -5.65604609e-01 -4.23541425e-01 -4.23541425e-01  4.07499775e-01
Alpha MO coefficients                      R   N=         100
  5.56022962e-04  9.94504536e-01  1.57378283e-02  0.00000000e+00  0.00000000e+00
 -1.26855987e-04 -1.85385573e-03  0.00000000e+00  0.00000000e+00  2.74996580e-04
  1.08918089e-02  3.77051022e-01 -1.05358696e+00  0.00000000e+00  0.00000000e+00
  1.15615027e-02 -4.52988524e-02  0.00000000e+00  0.00000000e+00  6.39627218e-03
  1.46993701e-02 -5.12174078e-03  1.44918712e-02  0.00000000e+00  0.00000000e+00
  9.88399802e-01 -7.06399812e-03  0.00000000e+00  0.00000000e+00  4.76021855e-02
  0.00000000e+00  0.00000000e+00  0.00000000e+00  9.90243997e-01  0.00000000e+00
  0.00000000e+00  0.00000000e+00  3.88721354e-02  0.00000000e+00  0.00000000e+00
  0.00000000e+00  0.00000000e+00  0.00000000e+00  0.00000000e+00  9.90243997e-01
  0.00000000e+00  0.00000000e+00  0.00000000e+00  3.88721354e-02  0.00000000e+00
  1.87950757e-01  8.21086242e-02 -2.72553724e-01  0.00000000e+00  0.00000000e+00
  4.41024833e-02  9.09174051e-01  0.00000000e+00  0.00000000e+00 -1.33138660e-01
  4.99978782e-01 -3.16535257e-02  9.67129350e-02  0.00000000e+00  0.00000000e+00
  2.00820885e-01 -4.80535868e-01  0.00000000e+00  0.00000000e+00 -6.74279254e-01
  0.00000000e+00  0.00000000e+00  0.00000000e+00  2.76778971e-01  0.00000000e+00
  0.00000000e+00  0.00000000e+00 -1.02746228e+00  0.00000000e+00  0.00000000e+00
  0.00000000e+00  0.00000000e+00  0.00000000e+00  0.00000000e+00  2.76778971e-01
  0.00000000e+00  0.00000000e+00  0.00000000e+00 -1.02746228e+00  0.00000000e+00
  1.16608331e+00 -2.56247794e-02  6.67088712e-02  0.00000000e+00  0.00000000e+00
 -2.20910890e-01 -5.53558008e-01  0.00000000e+00  0.00000000e+00  9.71982710e-01
Total SCF Density                          R   N=          55
  5.71278563e-01  8.38147108e-03  2.27795350e+00 -2.82519186e-02 -8.14238481e-01
  2.38828422e+00  0.00000000e+00  0.00000000e+00  0.00000000e+00  2.11437955e+00
  0.00000000e+00  0.00000000e+00  0.00000000e+00  0.00000000e+00  2.11437955e+00
  2.46699973e-01 -7.12940974e-03  1.90847977e-02  0.00000000e+00  0.00000000e+00
  2.03868382e+00 -1.39952079e-01  1.41948437e-01 -4.93356146e-01  0.00000000e+00
  0.00000000e+00 -1.27820694e-01  2.11923500e+00  0.00000000e+00  0.00000000e+00
  0.00000000e+00 -4.91774107e-01  0.00000000e+00  0.00000000e+00  0.00000000e+00
  2.11437955e+00  0.00000000e+00  0.00000000e+00  0.00000000e+00  0.00000000e+00
 -4.91774107e-01  0.00000000e+00  0.00000000e+00  0.00000000e+00  2.11437955e+00
 -7.22758579e-01  2.57057676e-02 -6.99378891e-02  0.00000000e+00  0.00000000e+00
 -1.88314392e-01  4.04685273e-01  0.00000000e+00  0.00000000e+00  9.49370741e-01
