testing the scripts
SP        UHF                                                         6-31G(d,p)
Number of atoms                            I                4
Info1-9                                    I   N=           9
          10          10           0           0           0         110
           1           1           2
Full Title                                 C   N=           2
testing the scripts
Route                                      C   N=           3
# uhf/6-31g** Geom=Check Guess=Read
Charge                                     I                1
Multiplicity                               I                2
Number of electrons                        I               15
Number of alpha electrons                  I                8
Number of beta electrons                   I                7
Number of basis functions                  I               40
Number of independent functions            I               40
Number of point charges in /Mol/           I                0
Number of translation vectors              I                0
Atomic numbers                             I   N=           4
           8           6           1           1
Nuclear charges                            R   N=           4
  8.00000000E+00  6.00000000E+00  1.00000000E+00  1.00000000E+00
Current cartesian coordinates              R   N=          12
 -1.23259516E-32  1.00530930E-32  1.27229733E+00  0.00000000E+00 -1.32254311E-32
 -9.95825669E-01  0.00000000E+00  1.77311490E+00 -2.10171229E+00 -2.17143949E-16
 -1.77311490E+00 -2.10171229E+00
Number of symbols in /Mol/                 I                0
Int Atom Types                             I   N=           4
           0           0           0           0
Force Field                                I                0
Atom Types                                 C   N=           4

MM charges                                 R   N=           4
  0.00000000E+00  0.00000000E+00  0.00000000E+00  0.00000000E+00
Integer atomic weights                     I   N=           4
          16          12           1           1
Real atomic weights                        R   N=           4
  1.59949146E+01  1.20000000E+01  1.00782504E+00  1.00782504E+00
Atom fragment info                         I   N=           4
           0           0           0           0
Atom residue num                           I   N=           4
           0           0           0           0
Nuclear spins                              I   N=           4
           0           0           1           1
Nuclear ZEff                               R   N=           4
 -5.60000000E+00 -3.60000000E+00 -1.00000000E+00 -1.00000000E+00
Nuclear ZNuc                               R   N=           4
  8.00000000E+00  6.00000000E+00  1.00000000E+00  1.00000000E+00
Nuclear QMom                               R   N=           4
  0.00000000E+00  0.00000000E+00  0.00000000E+00  0.00000000E+00
Nuclear GFac                               R   N=           4
  0.00000000E+00  0.00000000E+00  2.79284600E+00  2.79284600E+00
MicOpt                                     I   N=           4
          -1          -1          -1          -1
Number of residues                         I                0
Number of secondary structures             I                0
SymInf integers                            I   N=          26
           2           4           1           1           1          -1
          -1           1          -1           1           1           1
          -1           1           0           0           0           0
           0           0           0           0           0           0
           0           0
RotTr to input orientation                 R   N=          12
  6.12323400E-17 -1.87390684E-16 -1.00000000E+00 -8.28405811E-17  1.00000000E+00
 -1.87390684E-16  1.00000000E+00  8.28405811E-17  6.12323400E-17  1.00594137E+00
  0.00000000E+00  1.35714968E-17
Number of contracted shells                I               14
Number of primitive shells                 I               32
Pure/Cartesian d shells                    I                1
Pure/Cartesian f shells                    I                0
Highest angular momentum                   I                2
Largest degree of contraction              I                6
Shell types                                I   N=          14
           0          -1          -1           2           0          -1
          -1           2           0           0           1           0
           0           1
Number of primitives per shell             I   N=          14
           6           3           1           1           6           3
           1           1           3           1           1           3
           1           1
Shell to atom map                          I   N=          14
           1           1           1           1           2           2
           2           2           3           3           3           4
           4           4
Primitive exponents                        R   N=          32
  5.48467166E+03  8.25234946E+02  1.88046958E+02  5.29645000E+01  1.68975704E+01
  5.79963534E+00  1.55396162E+01  3.59993359E+00  1.01376175E+00  2.70005823E-01
  8.00000000E-01  3.04752488E+03  4.57369518E+02  1.03948685E+02  2.92101553E+01
  9.28666296E+00  3.16392696E+00  7.86827235E+00  1.88128854E+00  5.44249258E-01
  1.68714478E-01  8.00000000E-01  1.87311370E+01  2.82539436E+00  6.40121692E-01
  1.61277759E-01  1.10000000E+00  1.87311370E+01  2.82539436E+00  6.40121692E-01
  1.61277759E-01  1.10000000E+00
Contraction coefficients                   R   N=          32
  1.83107443E-03  1.39501722E-02  6.84450781E-02  2.32714336E-01  4.70192898E-01
  3.58520853E-01 -1.10777550E-01 -1.48026263E-01  1.13076702E+00  1.00000000E+00
  1.00000000E+00  1.83473713E-03  1.40373228E-02  6.88426223E-02  2.32184443E-01
  4.67941348E-01  3.62311985E-01 -1.19332420E-01 -1.60854152E-01  1.14345644E+00
  1.00000000E+00  1.00000000E+00  3.34946043E-02  2.34726953E-01  8.13757326E-01
  1.00000000E+00  1.00000000E+00  3.34946043E-02  2.34726953E-01  8.13757326E-01
  1.00000000E+00  1.00000000E+00
P(S=P) Contraction coefficients            R   N=          32
  0.00000000E+00  0.00000000E+00  0.00000000E+00  0.00000000E+00  0.00000000E+00
  0.00000000E+00  7.08742682E-02  3.39752839E-01  7.27158577E-01  1.00000000E+00
  0.00000000E+00  0.00000000E+00  0.00000000E+00  0.00000000E+00  0.00000000E+00
  0.00000000E+00  0.00000000E+00  6.89990666E-02  3.16423961E-01  7.44308291E-01
  1.00000000E+00  0.00000000E+00  0.00000000E+00  0.00000000E+00  0.00000000E+00
  0.00000000E+00  0.00000000E+00  0.00000000E+00  0.00000000E+00  0.00000000E+00
  0.00000000E+00  0.00000000E+00
Coordinates of each shell                  R   N=          42
 -3.92056883E-33  7.84113765E-33  1.27229733E+00 -3.92056883E-33  7.84113765E-33
  1.27229733E+00 -3.92056883E-33  7.84113765E-33  1.27229733E+00 -3.92056883E-33
  7.84113765E-33  1.27229733E+00  3.06862476E-33 -6.13724952E-33 -9.95825669E-01
  3.06862476E-33 -6.13724952E-33 -9.95825669E-01  3.06862476E-33 -6.13724952E-33
 -9.95825669E-01  3.06862476E-33 -6.13724952E-33 -9.95825669E-01  0.00000000E+00
  1.77311490E+00 -2.10171229E+00  0.00000000E+00  1.77311490E+00 -2.10171229E+00
  0.00000000E+00  1.77311490E+00 -2.10171229E+00 -2.17143949E-16 -1.77311490E+00
 -2.10171229E+00 -2.17143949E-16 -1.77311490E+00 -2.10171229E+00 -2.17143949E-16
 -1.77311490E+00 -2.10171229E+00
Num ILSW                                   I              100
ILSW                                       I   N=         100
           1           1           0           0           2           0
           0           0           0           0           0          -1
           5           0           0           0           0           0
           0           0           1           0           0           0
           1           0           0           0           0           0
           0           0      100000           0          -1           0
           0           0           0           0           0           0
           0           0           0           1           0           0
           0 -2000000000           1           0           0           0
           0           0           4          52           0           0
           0           0           0           0           0           0
           0           0           0           0           0           1
           0           0           0           0           0           0
           0           0           0           0           0           0
           0           0           0           0           0           0
           0           0           0           0           0           0
           0           0           0           0
Num RLSW                                   I               52
RLSW                                       R   N=          52
  1.00000000E+00  1.00000000E+00  1.00000000E+00  1.00000000E+00  1.00000000E+00
  0.00000000E+00  0.00000000E+00  1.00000000E+00  0.00000000E+00  0.00000000E+00
  0.00000000E+00  0.00000000E+00  1.00000000E+00  0.00000000E+00  0.00000000E+00
  0.00000000E+00  0.00000000E+00  1.00000000E+00  0.00000000E+00  0.00000000E+00
  0.00000000E+00  0.00000000E+00  1.00000000E+00  0.00000000E+00  0.00000000E+00
  0.00000000E+00  0.00000000E+00  1.00000000E+00  0.00000000E+00  0.00000000E+00
  0.00000000E+00  0.00000000E+00  1.00000000E+00  0.00000000E+00  0.00000000E+00
  0.00000000E+00  0.00000000E+00  0.00000000E+00  1.00000000E+00  1.00000000E+00
  0.00000000E+00  1.00000000E+00  0.00000000E+00  0.00000000E+00  0.00000000E+00
  0.00000000E+00  0.00000000E+00  0.00000000E+00  0.00000000E+00  0.00000000E+00
  0.00000000E+00  0.00000000E+00
MxBond                                     I                3
NBond                                      I   N=           4
           1           3           1           1
IBond                                      I   N=          12
           2           0           0           1           3           4
           2           0           0           2           0           0
RBond                                      R   N=          12
  2.00000000E+00  0.00000000E+00  0.00000000E+00  2.00000000E+00  1.00000000E+00
  1.00000000E+00  1.00000000E+00  0.00000000E+00  0.00000000E+00  1.00000000E+00
  0.00000000E+00  0.00000000E+00
Virial Ratio                               R      2.002675046356789E+00
SCF Energy                                 R     -1.135233758128939E+02
Total Energy                               R     -1.135233758128939E+02
S**2                                       R      7.862926362612326E-01
S**2 after annihilation                    R      7.507721367581676E-01
RMS Density                                R      4.760174109703220E-09
Job Status                                 I                1
Nuclear derivative order                   I                0
External E-field                           R   N=          35
  0.00000000E+00  0.00000000E+00  0.00000000E+00  0.00000000E+00  0.00000000E+00
  0.00000000E+00  0.00000000E+00  0.00000000E+00  0.00000000E+00  0.00000000E+00
  0.00000000E+00  0.00000000E+00  0.00000000E+00  0.00000000E+00  0.00000000E+00
  0.00000000E+00  0.00000000E+00  0.00000000E+00  0.00000000E+00  0.00000000E+00
  0.00000000E+00  0.00000000E+00  0.00000000E+00  0.00000000E+00  0.00000000E+00
  0.00000000E+00  0.00000000E+00  0.00000000E+00  0.00000000E+00  0.00000000E+00
  0.00000000E+00  0.00000000E+00  0.00000000E+00  0.00000000E+00  0.00000000E+00
IOpCl                                      I                1
IROHF                                      I                0
Alpha Orbital Energies                     R   N=          40
 -2.10749459E+01 -1.17003925E+01 -1.88820376E+00 -1.23426089E+00 -1.13500862E+00
 -1.06237351E+00 -9.93880530E-01 -8.80727813E-01 -2.02854582E-01 -2.06594121E-02
  5.23126757E-02  6.54749527E-02  4.36249883E-01  4.89145939E-01  5.19435740E-01
  5.87857212E-01  7.28017008E-01  7.34660813E-01  7.98808178E-01  8.66303360E-01
  9.22946646E-01  1.25729645E+00  1.27682851E+00  1.38414366E+00  1.54542865E+00
  1.68413876E+00  1.71727535E+00  1.93546495E+00  1.95982430E+00  2.05630874E+00
  2.20486331E+00  2.50257311E+00  2.59369299E+00  2.68421852E+00  2.79819941E+00
  2.92318393E+00  3.27830968E+00  3.50573273E+00  3.72377192E+00  4.30008873E+00
Beta Orbital Energies                      R   N=          40
 -2.10279073E+01 -1.17079230E+01 -1.76058217E+00 -1.19204425E+00 -1.01827416E+00
 -9.73589675E-01 -9.21043284E-01 -2.61357512E-01 -2.02553081E-01 -1.40678349E-02
  7.35303369E-02  8.15892453E-02  4.16670297E-01  5.28427516E-01  5.31671660E-01
  6.03100520E-01  7.54816895E-01  7.57886005E-01  8.09062578E-01  9.10347808E-01
  1.05422406E+00  1.28030927E+00  1.28120089E+00  1.38522071E+00  1.60484216E+00
  1.76904317E+00  1.77327512E+00  1.95954938E+00  1.98595641E+00  2.07673629E+00
  2.22087775E+00  2.51074575E+00  2.59861114E+00  2.71423999E+00  2.81710888E+00
  2.94036338E+00  3.28654717E+00  3.51717242E+00  3.76233006E+00  4.29472060E+00
Alpha MO coefficients                      R   N=        1600
  9.94272051E-01  2.23588992E-02  0.00000000E+00  0.00000000E+00 -1.76366939E-03
  5.51577481E-03  0.00000000E+00  0.00000000E+00 -2.11596152E-05 -4.67687694E-03
 -4.26411022E-03 -4.25692460E-03  0.00000000E+00  0.00000000E+00  0.00000000E+00
  1.46481974E-05  5.93872465E-04  0.00000000E+00  0.00000000E+00 -6.65651962E-05
 -5.91918126E-04  0.00000000E+00  0.00000000E+00 -7.03019886E-04 -1.25652749E-05
 -3.85256508E-05 -8.75332296E-04  0.00000000E+00  0.00000000E+00  0.00000000E+00
 -7.38053404E-06 -1.47881291E-04  0.00000000E+00 -1.94806500E-05 -6.05504934E-05
 -7.38053404E-06 -1.47881291E-04  0.00000000E+00  1.94806500E-05 -6.05504934E-05
 -3.87020290E-04  4.91315392E-04  0.00000000E+00  0.00000000E+00 -2.16472236E-04
 -2.17525351E-03  0.00000000E+00  0.00000000E+00  2.04215480E-03  3.04950668E-04
  6.97197613E-05 -4.71700281E-04  0.00000000E+00  0.00000000E+00  0.00000000E+00
  9.95786380E-01  2.64800462E-02  0.00000000E+00  0.00000000E+00  1.78356431E-03
 -6.15507268E-03  0.00000000E+00  0.00000000E+00  1.65206638E-03 -2.91306530E-03
 -1.73908195E-03 -6.18579588E-04  0.00000000E+00  0.00000000E+00  0.00000000E+00
 -1.68626444E-04  1.85246062E-03  0.00000000E+00  8.41790668E-05 -1.10171266E-04
 -1.68626444E-04  1.85246062E-03  0.00000000E+00 -8.41790668E-05 -1.10171266E-04
 -2.08996828E-01  4.98764813E-01  0.00000000E+00  0.00000000E+00 -1.42685287E-01
  3.89153835E-01  0.00000000E+00  0.00000000E+00 -5.85065610E-02 -5.34765053E-03
  1.34275243E-02  1.37665934E-02  0.00000000E+00  0.00000000E+00  0.00000000E+00
 -9.60781639E-02  1.83385634E-01  0.00000000E+00  0.00000000E+00  1.71591924E-01
  1.46501578E-02  0.00000000E+00  0.00000000E+00 -2.98807207E-02 -1.84206451E-02
 -2.02831436E-02  3.33744913E-02  0.00000000E+00  0.00000000E+00  0.00000000E+00
  2.25733970E-02 -4.19231583E-03  0.00000000E+00 -3.62471651E-03  4.48906617E-03
  2.25733970E-02 -4.19231583E-03  0.00000000E+00  3.62471651E-03  4.48906617E-03
  8.98382777E-02 -2.29684606E-01  0.00000000E+00  0.00000000E+00 -2.89698054E-01
 -2.83602441E-01  0.00000000E+00  0.00000000E+00 -1.16202661E-01 -5.51851421E-03
 -1.80469038E-02  2.27988799E-02  0.00000000E+00  0.00000000E+00  0.00000000E+00
 -1.69564624E-01  3.71253895E-01  0.00000000E+00  0.00000000E+00 -8.35915032E-02
  2.92594502E-01  0.00000000E+00  0.00000000E+00 -4.44268664E-02 -1.89565619E-02
  1.49464048E-02  4.06867563E-03  0.00000000E+00  0.00000000E+00  0.00000000E+00
  1.63787944E-01  3.93467074E-02  0.00000000E+00 -1.25594211E-02  7.08485500E-03
  1.63787944E-01  3.93467074E-02  0.00000000E+00  1.25594211E-02  7.08485500E-03
  0.00000000E+00  0.00000000E+00  0.00000000E+00  5.89097714E-01  0.00000000E+00
  0.00000000E+00  0.00000000E+00  2.94908581E-01  0.00000000E+00  0.00000000E+00
  0.00000000E+00  0.00000000E+00  0.00000000E+00  0.00000000E+00 -3.51823031E-02
  0.00000000E+00  0.00000000E+00  0.00000000E+00  2.96559468E-01  0.00000000E+00
  0.00000000E+00  0.00000000E+00  7.61200082E-02  0.00000000E+00  0.00000000E+00
  0.00000000E+00  0.00000000E+00  0.00000000E+00  0.00000000E+00  1.48439781E-02
  1.11311589E-01  4.72612308E-02  0.00000000E+00 -7.27020686E-03  5.54640980E-03
 -1.11311589E-01 -4.72612308E-02  0.00000000E+00 -7.27020686E-03 -5.54640980E-03
 -4.80340520E-02  1.25515989E-01  0.00000000E+00  0.00000000E+00  5.02220124E-01
  2.01932706E-01  0.00000000E+00  0.00000000E+00  2.30669096E-01  9.62806277E-03
  1.94603533E-02 -3.16532523E-02  0.00000000E+00  0.00000000E+00  0.00000000E+00
 -2.59787164E-02  4.61968078E-02  0.00000000E+00  0.00000000E+00 -3.98249116E-01
  1.49509101E-01  0.00000000E+00  0.00000000E+00 -7.84729993E-02  4.12893921E-03
  3.09894295E-02 -2.70968624E-02  0.00000000E+00  0.00000000E+00  0.00000000E+00
  1.38966109E-01  6.19800943E-02  0.00000000E+00 -9.26837496E-03  2.00470703E-03
  1.38966109E-01  6.19800943E-02  0.00000000E+00  9.26837496E-03  2.00470703E-03
  0.00000000E+00  0.00000000E+00  6.34017146E-01  0.00000000E+00  0.00000000E+00
  0.00000000E+00  3.72215525E-01  0.00000000E+00  0.00000000E+00  0.00000000E+00
  0.00000000E+00  0.00000000E+00  0.00000000E+00 -4.53474851E-02  0.00000000E+00
  0.00000000E+00  0.00000000E+00  2.19593987E-01  0.00000000E+00  0.00000000E+00
  0.00000000E+00  7.78183633E-02  0.00000000E+00  0.00000000E+00  0.00000000E+00
  0.00000000E+00  0.00000000E+00  0.00000000E+00  3.89249149E-02  0.00000000E+00
  0.00000000E+00  0.00000000E+00  3.32780875E-03  0.00000000E+00  0.00000000E+00
  0.00000000E+00  0.00000000E+00  3.32780875E-03  0.00000000E+00  0.00000000E+00
  0.00000000E+00  0.00000000E+00  0.00000000E+00  4.30851302E-01  0.00000000E+00
  0.00000000E+00  0.00000000E+00  2.94354759E-01  0.00000000E+00  0.00000000E+00
  0.00000000E+00  0.00000000E+00  0.00000000E+00  0.00000000E+00 -8.83421126E-03
  0.00000000E+00  0.00000000E+00  0.00000000E+00 -3.84445351E-01  0.00000000E+00
  0.00000000E+00  0.00000000E+00 -1.98328509E-01  0.00000000E+00  0.00000000E+00
  0.00000000E+00  0.00000000E+00  0.00000000E+00  0.00000000E+00  4.92437446E-02
 -2.46204398E-01 -1.45163255E-01  0.00000000E+00  9.60308268E-03 -8.20412017E-03
  2.46204398E-01  1.45163255E-01  0.00000000E+00  9.60308268E-03  8.20412017E-03
  0.00000000E+00  0.00000000E+00 -3.14191103E-01  0.00000000E+00  0.00000000E+00
  0.00000000E+00 -3.73818626E-01  0.00000000E+00  0.00000000E+00  0.00000000E+00
  0.00000000E+00  0.00000000E+00  0.00000000E+00 -1.05336654E-02  0.00000000E+00
  0.00000000E+00  0.00000000E+00  4.93303246E-01  0.00000000E+00  0.00000000E+00
  0.00000000E+00  6.86650369E-01  0.00000000E+00  0.00000000E+00  0.00000000E+00
  0.00000000E+00  0.00000000E+00  0.00000000E+00 -1.81763950E-02  0.00000000E+00
  0.00000000E+00  0.00000000E+00  1.92456135E-02  0.00000000E+00  0.00000000E+00
  0.00000000E+00  0.00000000E+00  1.92456135E-02  0.00000000E+00  0.00000000E+00
 -2.90130138E-04 -1.64388501E-02  0.00000000E+00  0.00000000E+00  6.03961776E-02
  1.39595678E-01  0.00000000E+00  0.00000000E+00  3.10973619E-02  2.20637008E-03
 -1.59328826E-02  2.94390421E-03  0.00000000E+00  0.00000000E+00  0.00000000E+00
 -1.22782880E-01  2.11923630E-01  0.00000000E+00  0.00000000E+00 -2.15020703E-01
  1.75239048E+00  0.00000000E+00  0.00000000E+00 -7.56674398E-01  9.08574511E-03
 -1.69748265E-02 -6.35546900E-03  0.00000000E+00  0.00000000E+00  0.00000000E+00
 -8.59531410E-02 -1.37866861E+00  0.00000000E+00 -8.17865290E-03 -1.35954782E-03
 -8.59531410E-02 -1.37866861E+00  0.00000000E+00  8.17865290E-03 -1.35954782E-03
  0.00000000E+00  0.00000000E+00  0.00000000E+00  1.32308714E-01  0.00000000E+00
  0.00000000E+00  0.00000000E+00  3.24085559E-01  0.00000000E+00  0.00000000E+00
  0.00000000E+00  0.00000000E+00  0.00000000E+00  0.00000000E+00  2.06527577E-02
  0.00000000E+00  0.00000000E+00  0.00000000E+00 -4.71396890E-01  0.00000000E+00
  0.00000000E+00  0.00000000E+00 -1.41574813E+00  0.00000000E+00  0.00000000E+00
  0.00000000E+00  0.00000000E+00  0.00000000E+00  0.00000000E+00 -1.83337830E-02
  4.26689622E-02  1.62886343E+00  0.00000000E+00  3.71824268E-03 -1.02918930E-02
 -4.26689622E-02 -1.62886343E+00  0.00000000E+00  3.71824268E-03  1.02918930E-02
 -1.02467241E-01  9.01964307E-02  0.00000000E+00  0.00000000E+00 -1.81212882E-01
  2.12028859E+00  0.00000000E+00  0.00000000E+00 -8.65916952E-01 -6.96578416E-02
 -6.32105099E-02 -3.00565971E-03  0.00000000E+00  0.00000000E+00  0.00000000E+00
  5.78103564E-02 -9.27442563E-03  0.00000000E+00  0.00000000E+00 -1.13943355E-01
 -1.73285505E+00  0.00000000E+00  0.00000000E+00 -1.90557009E+00 -8.03585826E-03
 -2.42777573E-02  1.54629933E-02  0.00000000E+00  0.00000000E+00  0.00000000E+00
  1.94204032E-02 -8.53645931E-02  0.00000000E+00 -9.86167779E-03 -1.16667804E-02
  1.94204032E-02 -8.53645931E-02  0.00000000E+00  9.86167779E-03 -1.16667804E-02
  0.00000000E+00  0.00000000E+00 -3.32203272E-02  0.00000000E+00  0.00000000E+00
  0.00000000E+00 -7.45566397E-02  0.00000000E+00  0.00000000E+00  0.00000000E+00
  0.00000000E+00  0.00000000E+00  0.00000000E+00  9.40134544E-02  0.00000000E+00
  0.00000000E+00  0.00000000E+00 -1.05361838E+00  0.00000000E+00  0.00000000E+00
  0.00000000E+00  1.11654871E+00  0.00000000E+00  0.00000000E+00  0.00000000E+00
  0.00000000E+00  0.00000000E+00  0.00000000E+00 -2.64416605E-02  0.00000000E+00
  0.00000000E+00  0.00000000E+00 -1.04590508E-02  0.00000000E+00  0.00000000E+00
  0.00000000E+00  0.00000000E+00 -1.04590508E-02  0.00000000E+00  0.00000000E+00
  0.00000000E+00  0.00000000E+00  0.00000000E+00 -3.76590904E-01  0.00000000E+00
  0.00000000E+00  0.00000000E+00 -8.14290472E-02  0.00000000E+00  0.00000000E+00
  0.00000000E+00  0.00000000E+00  0.00000000E+00  0.00000000E+00  1.91539376E-02
  0.00000000E+00  0.00000000E+00  0.00000000E+00 -6.78299512E-01  0.00000000E+00
  0.00000000E+00  0.00000000E+00  2.08250687E+00  0.00000000E+00  0.00000000E+00
  0.00000000E+00  0.00000000E+00  0.00000000E+00  0.00000000E+00  3.69200085E-02
 -3.52074317E-01 -7.91665333E-01  0.00000000E+00  5.53597682E-02  4.10197110E-03
  3.52074317E-01  7.91665333E-01  0.00000000E+00  5.53597682E-02 -4.10197110E-03
  1.47810086E-02 -3.02373703E-01  0.00000000E+00  0.00000000E+00  4.07303537E-02
  3.87092512E-01  0.00000000E+00  0.00000000E+00  2.04359028E-01 -4.88699190E-02
 -1.12351331E-01 -4.46780676E-02  0.00000000E+00  0.00000000E+00  0.00000000E+00
 -7.43697199E-02 -6.61864366E-01  0.00000000E+00  0.00000000E+00  4.31317615E-01
  1.81985637E+00  0.00000000E+00  0.00000000E+00 -9.14773456E-01  7.42880327E-02
 -2.12621625E-01 -9.45869311E-02  0.00000000E+00  0.00000000E+00  0.00000000E+00
 -5.78798607E-01 -2.64901028E-01  0.00000000E+00 -1.75257240E-02 -2.16328068E-02
 -5.78798607E-01 -2.64901028E-01  0.00000000E+00  1.75257240E-02 -2.16328068E-02
  4.40608217E-02 -1.05700914E-01  0.00000000E+00  0.00000000E+00  3.83253652E-01
  1.53591650E-01  0.00000000E+00  0.00000000E+00  2.76251826E-01 -6.88933386E-02
 -7.71049332E-02  2.39717671E-01  0.00000000E+00  0.00000000E+00  0.00000000E+00
 -4.29128238E-02  8.22664343E-01  0.00000000E+00  0.00000000E+00  8.73530641E-01
 -7.33540701E-01  0.00000000E+00  0.00000000E+00 -6.18399839E-01  7.13301150E-02
  1.66103945E-01 -1.33990702E-01  0.00000000E+00  0.00000000E+00  0.00000000E+00
  1.29980077E-01 -3.15890728E-02  0.00000000E+00  3.98666889E-02  2.58665584E-02
  1.29980077E-01 -3.15890728E-02  0.00000000E+00 -3.98666889E-02  2.58665584E-02
  0.00000000E+00  0.00000000E+00  0.00000000E+00 -1.52026607E-01  0.00000000E+00
  0.00000000E+00  0.00000000E+00  1.81662270E-01  0.00000000E+00  0.00000000E+00
  0.00000000E+00  0.00000000E+00  0.00000000E+00  0.00000000E+00 -1.41651345E-01
  0.00000000E+00  0.00000000E+00  0.00000000E+00  6.93204735E-01  0.00000000E+00
  0.00000000E+00  0.00000000E+00 -1.36247859E+00  0.00000000E+00  0.00000000E+00
  0.00000000E+00  0.00000000E+00  0.00000000E+00  0.00000000E+00  2.56165847E-01
 -6.74212320E-01  1.47936519E+00  0.00000000E+00 -4.84569115E-02  7.50052998E-02
  6.74212320E-01 -1.47936519E+00  0.00000000E+00 -4.84569115E-02 -7.50052998E-02
 -8.87946437E-03 -5.09525752E-01  0.00000000E+00  0.00000000E+00 -6.59705260E-01
  6.20047677E-01  0.00000000E+00  0.00000000E+00  1.20895224E+00 -1.83047122E-01
 -1.90750263E-01 -2.88021297E-01  0.00000000E+00  0.00000000E+00  0.00000000E+00
  6.74291716E-02  3.63801346E-02  0.00000000E+00  0.00000000E+00  2.81115712E-01
  7.29896109E-01  0.00000000E+00  0.00000000E+00 -1.17336257E-01 -1.15597407E-01
  3.99118029E-03  2.72818277E-01  0.00000000E+00  0.00000000E+00  0.00000000E+00
  2.29007778E-01 -3.82430736E-01  0.00000000E+00  1.80032116E-02 -4.43379012E-02
  2.29007778E-01 -3.82430736E-01  0.00000000E+00 -1.80032116E-02 -4.43379012E-02
  1.15717964E-02  2.55857474E-01  0.00000000E+00  0.00000000E+00  9.88632282E-02
 -7.80364165E-01  0.00000000E+00  0.00000000E+00 -4.46437367E-02  1.23182463E-01
  9.21924988E-02  7.65744313E-02  0.00000000E+00  0.00000000E+00  0.00000000E+00
  1.21665220E-02 -1.42114729E+00  0.00000000E+00  0.00000000E+00  4.31292326E-01
  3.20427029E+00  0.00000000E+00  0.00000000E+00 -6.69499975E-01 -1.28848951E-01
  1.05794350E-01 -1.20277674E-01  0.00000000E+00  0.00000000E+00  0.00000000E+00
  5.01232895E-01 -1.43286409E+00  0.00000000E+00  9.26568453E-02 -2.31581534E-02
  5.01232895E-01 -1.43286409E+00  0.00000000E+00 -9.26568453E-02 -2.31581534E-02
  0.00000000E+00  0.00000000E+00 -9.21420104E-01  0.00000000E+00  0.00000000E+00
  0.00000000E+00  1.26969289E+00  0.00000000E+00  0.00000000E+00  0.00000000E+00
  0.00000000E+00  0.00000000E+00  0.00000000E+00  2.82976358E-02  0.00000000E+00
  0.00000000E+00  0.00000000E+00  9.50952666E-02  0.00000000E+00  0.00000000E+00
  0.00000000E+00 -4.96596668E-01  0.00000000E+00  0.00000000E+00  0.00000000E+00
  0.00000000E+00  0.00000000E+00  0.00000000E+00 -3.52534112E-02  0.00000000E+00
  0.00000000E+00  0.00000000E+00 -2.85341738E-02  0.00000000E+00  0.00000000E+00
  0.00000000E+00  0.00000000E+00 -2.85341738E-02  0.00000000E+00  0.00000000E+00
  0.00000000E+00  0.00000000E+00  0.00000000E+00  7.86216601E-01  0.00000000E+00
  0.00000000E+00  0.00000000E+00 -1.54487154E+00  0.00000000E+00  0.00000000E+00
  0.00000000E+00  0.00000000E+00  0.00000000E+00  0.00000000E+00 -1.17026510E-01
  0.00000000E+00  0.00000000E+00  0.00000000E+00 -3.06057960E-01  0.00000000E+00
  0.00000000E+00  0.00000000E+00  1.78087726E+00  0.00000000E+00  0.00000000E+00
  0.00000000E+00  0.00000000E+00  0.00000000E+00  0.00000000E+00  1.61161648E-01
 -1.58233181E-01 -7.55244773E-01  0.00000000E+00  3.01017422E-02  7.96015354E-03
  1.58233181E-01  7.55244773E-01  0.00000000E+00  3.01017422E-02 -7.96015354E-03
 -9.89538959E-02 -1.69579805E+00  0.00000000E+00  0.00000000E+00  3.19081376E-01
  5.20772517E+00  0.00000000E+00  0.00000000E+00 -1.83729825E+00 -4.30796907E-01
 -2.83307846E-01 -5.61401517E-01  0.00000000E+00  0.00000000E+00  0.00000000E+00
 -3.08810942E-02 -5.94656062E-02  0.00000000E+00  0.00000000E+00 -1.37320154E-01
 -2.75899485E+00  0.00000000E+00  0.00000000E+00 -1.75912070E+00 -3.07968039E-02
  2.37197276E-01 -2.13418858E-01  0.00000000E+00  0.00000000E+00  0.00000000E+00
  1.05634624E-01 -5.26711587E-02  0.00000000E+00 -2.10640262E-02 -4.78070121E-03
  1.05634624E-01 -5.26711587E-02  0.00000000E+00  2.10640262E-02 -4.78070121E-03
  0.00000000E+00  0.00000000E+00  0.00000000E+00  0.00000000E+00  0.00000000E+00
  0.00000000E+00  0.00000000E+00  0.00000000E+00  0.00000000E+00  0.00000000E+00
  0.00000000E+00  0.00000000E+00  3.50985509E-01  0.00000000E+00  0.00000000E+00
  0.00000000E+00  0.00000000E+00  0.00000000E+00  0.00000000E+00  0.00000000E+00
  0.00000000E+00  0.00000000E+00  0.00000000E+00  0.00000000E+00  0.00000000E+00
  0.00000000E+00  0.00000000E+00  6.95286550E-01  0.00000000E+00  0.00000000E+00
  0.00000000E+00  0.00000000E+00  2.74465100E-01  0.00000000E+00  0.00000000E+00
  0.00000000E+00  0.00000000E+00 -2.74465100E-01  0.00000000E+00  0.00000000E+00
  0.00000000E+00  0.00000000E+00 -1.20791665E-01  0.00000000E+00  0.00000000E+00
  0.00000000E+00 -1.72841157E-01  0.00000000E+00  0.00000000E+00  0.00000000E+00
  0.00000000E+00  0.00000000E+00  0.00000000E+00 -5.11129626E-01  0.00000000E+00
  0.00000000E+00  0.00000000E+00 -2.14587199E-01  0.00000000E+00  0.00000000E+00
  0.00000000E+00  2.37473395E-01  0.00000000E+00  0.00000000E+00  0.00000000E+00
  0.00000000E+00  0.00000000E+00  0.00000000E+00  6.24773372E-01  0.00000000E+00
  0.00000000E+00  0.00000000E+00 -1.70142387E-01  0.00000000E+00  0.00000000E+00
  0.00000000E+00  0.00000000E+00 -1.70142387E-01  0.00000000E+00  0.00000000E+00
  1.48296082E-02  2.37884593E-01  0.00000000E+00  0.00000000E+00 -7.05636195E-02
 -7.03994909E-01  0.00000000E+00  0.00000000E+00  3.10369976E-01 -6.74596533E-01
  7.57282698E-01  7.44237772E-02  0.00000000E+00  0.00000000E+00  0.00000000E+00
 -1.97967467E-02 -1.79543522E-01  0.00000000E+00  0.00000000E+00  5.92928498E-02
  1.04513442E+00  0.00000000E+00  0.00000000E+00 -7.68433923E-02 -4.03629795E-01
  3.19609883E-01  5.73468025E-03  0.00000000E+00  0.00000000E+00  0.00000000E+00
 -2.72668194E-01 -1.70082881E-01  0.00000000E+00 -4.62268924E-03  8.75805077E-02
 -2.72668194E-01 -1.70082881E-01  0.00000000E+00  4.62268924E-03  8.75805077E-02
  0.00000000E+00  0.00000000E+00  0.00000000E+00  0.00000000E+00  0.00000000E+00
  0.00000000E+00  0.00000000E+00  0.00000000E+00  0.00000000E+00  0.00000000E+00
  0.00000000E+00  0.00000000E+00  9.06676619E-01  0.00000000E+00  0.00000000E+00
  0.00000000E+00  0.00000000E+00  0.00000000E+00  0.00000000E+00  0.00000000E+00
  0.00000000E+00  0.00000000E+00  0.00000000E+00  0.00000000E+00  0.00000000E+00
  0.00000000E+00  0.00000000E+00 -1.93508931E-01  0.00000000E+00  0.00000000E+00