ch2o_q+0 ub3lyp/aug-cc-pvtz opt-stable-freq                             
Freq      UB3LYP                                                      Aug-CC-pVTZ         
Number of atoms                            I                4
Info1-9                                    I   N=           9
          11           5           0           0           0         101
           6          18        -502
Charge                                     I                0
Multiplicity                               I                1
Number of electrons                        I               16
Number of alpha electrons                  I                8
Number of beta electrons                   I                8
Number of basis functions                  I              138
Number of independent functions            I              138
Number of point charges in /Mol/           I                0
Number of translation vectors              I                0
Atomic numbers                             I   N=           4
           8           6           1           1
Nuclear charges                            R   N=           4
  8.00000000E+00  6.00000000E+00  1.00000000E+00  1.00000000E+00
Current cartesian coordinates              R   N=          12
  2.27823914E+00  4.13899085E-07  3.12033662E-07  1.01154892E-02  1.09802629E-07
 -6.99333116E-07 -1.09577141E+00  1.77311416E+00  1.42544321E-07 -1.09577166E+00
 -1.77311468E+00  2.44755133E-07
Force Field                                I                0
Int Atom Types                             I   N=           4
           0           0           0           0
MM charges                                 R   N=           4
  0.00000000E+00  0.00000000E+00  0.00000000E+00  0.00000000E+00
Integer atomic weights                     I   N=           4
          16          12           1           1
Real atomic weights                        R   N=           4
  1.59949146E+01  1.20000000E+01  1.00782504E+00  1.00782504E+00
Atom fragment info                         I   N=           4
           0           0           0           0
Atom residue num                           I   N=           4
           0           0           0           0
Nuclear spins                              I   N=           4
           0           0           1           1
Nuclear ZEff                               R   N=           4
 -5.60000000E+00 -3.60000000E+00 -1.00000000E+00 -1.00000000E+00
Nuclear QMom                               R   N=           4
  0.00000000E+00  0.00000000E+00  0.00000000E+00  0.00000000E+00
Nuclear GFac                               R   N=           4
  0.00000000E+00  0.00000000E+00  2.79284600E+00  2.79284600E+00
MicOpt                                     I   N=           4
          -1          -1          -1          -1
Number of contracted shells                I               46
Number of primitive shells                 I               76
Pure/Cartesian d shells                    I                0
Pure/Cartesian f shells                    I                0
Highest angular momentum                   I                3
Largest degree of contraction              I                7
Shell types                                I   N=          46
           0           0           0           0           0           1
           1           1           1          -2          -2          -2
          -3          -3           0           0           0           0
           0           1           1           1           1          -2
          -2          -2          -3          -3           0           0
           0           0           1           1           1          -2
          -2           0           0           0           0           1
           1           1          -2          -2
Number of primitives per shell             I   N=          46
           7           6           1           1           1           3
           1           1           1           1           1           1
           1           1           7           6           1           1
           1           3           1           1           1           1
           1           1           1           1           3           1
           1           1           1           1           1           1
           1           3           1           1           1           1
           1           1           1           1
Shell to atom map                          I   N=          46
           1           1           1           1           1           1
           1           1           1           1           1           1
           1           1           2           2           2           2
           2           2           2           2           2           2
           2           2           2           2           3           3
           3           3           3           3           3           3
           3           4           4           4           4           4
           4           4           4           4
Primitive exponents                        R   N=          76
  1.53300000E+04  2.29900000E+03  5.22400000E+02  1.47300000E+02  4.75500000E+01
  1.67600000E+01  6.20700000E+00  5.22400000E+02  1.47300000E+02  4.75500000E+01
  1.67600000E+01  6.20700000E+00  6.88200000E-01  1.75200000E+00  2.38400000E-01
  7.37600000E-02  3.44600000E+01  7.74900000E+00  2.28000000E+00  7.15600000E-01
  2.14000000E-01  5.97400000E-02  2.31400000E+00  6.45000000E-01  2.14000000E-01
  1.42800000E+00  5.00000000E-01  8.23600000E+03  1.23500000E+03  2.80800000E+02
  7.92700000E+01  2.55900000E+01  8.99700000E+00  3.31900000E+00  2.80800000E+02
  7.92700000E+01  2.55900000E+01  8.99700000E+00  3.31900000E+00  3.64300000E-01
  9.05900000E-01  1.28500000E-01  4.40200000E-02  1.87100000E+01  4.13300000E+00
  1.20000000E+00  3.82700000E-01  1.20900000E-01  3.56900000E-02  1.09700000E+00
  3.18000000E-01  1.00000000E-01  7.61000000E-01  2.68000000E-01  3.38700000E+01
  5.09500000E+00  1.15900000E+00  3.25800000E-01  1.02700000E-01  2.52600000E-02
  1.40700000E+00  3.88000000E-01  1.02000000E-01  1.05700000E+00  2.47000000E-01
  3.38700000E+01  5.09500000E+00  1.15900000E+00  3.25800000E-01  1.02700000E-01
  2.52600000E-02  1.40700000E+00  3.88000000E-01  1.02000000E-01  1.05700000E+00
  2.47000000E-01
Contraction coefficients                   R   N=          76
  5.19808943E-04  4.02025621E-03  2.07128267E-02  8.10105536E-02  2.35962985E-01
  4.42653446E-01  3.57064423E-01 -4.42115008E-05 -1.22591041E-03 -1.05517725E-02
 -6.74452633E-02 -1.71198607E-01  1.07329856E+00  1.00000000E+00  1.00000000E+00
  1.00000000E+00  4.11634896E-02  2.57762836E-01  8.02419274E-01  1.00000000E+00
  1.00000000E+00  1.00000000E+00  1.00000000E+00  1.00000000E+00  1.00000000E+00
  1.00000000E+00  1.00000000E+00  5.41978320E-04  4.19287382E-03  2.15221621E-02
  8.35343220E-02  2.39582846E-01  4.42852842E-01  3.51799562E-01 -5.94922494E-05
 -1.14815831E-03 -1.00191374E-02 -6.12194923E-02 -1.73269854E-01  1.07291519E+00
  1.00000000E+00  1.00000000E+00  1.00000000E+00  3.94263872E-02  2.44088985E-01
  8.15492009E-01  1.00000000E+00  1.00000000E+00  1.00000000E+00  1.00000000E+00
  1.00000000E+00  1.00000000E+00  1.00000000E+00  1.00000000E+00  2.54948632E-02
  1.90362766E-01  8.52162022E-01  1.00000000E+00  1.00000000E+00  1.00000000E+00
  1.00000000E+00  1.00000000E+00  1.00000000E+00  1.00000000E+00  1.00000000E+00
  2.54948632E-02  1.90362766E-01  8.52162022E-01  1.00000000E+00  1.00000000E+00
  1.00000000E+00  1.00000000E+00  1.00000000E+00  1.00000000E+00  1.00000000E+00
  1.00000000E+00
Coordinates of each shell                  R   N=         138
  2.27823914E+00  4.13899085E-07  3.12033662E-07  2.27823914E+00  4.13899085E-07
  3.12033662E-07  2.27823914E+00  4.13899085E-07  3.12033662E-07  2.27823914E+00
  4.13899085E-07  3.12033662E-07  2.27823914E+00  4.13899085E-07  3.12033662E-07
  2.27823914E+00  4.13899085E-07  3.12033662E-07  2.27823914E+00  4.13899085E-07
  3.12033662E-07  2.27823914E+00  4.13899085E-07  3.12033662E-07  2.27823914E+00
  4.13899085E-07  3.12033662E-07  2.27823914E+00  4.13899085E-07  3.12033662E-07
  2.27823914E+00  4.13899085E-07  3.12033662E-07  2.27823914E+00  4.13899085E-07
  3.12033662E-07  2.27823914E+00  4.13899085E-07  3.12033662E-07  2.27823914E+00
  4.13899085E-07  3.12033662E-07  1.01154892E-02  1.09802629E-07 -6.99333116E-07
  1.01154892E-02  1.09802629E-07 -6.99333116E-07  1.01154892E-02  1.09802629E-07
 -6.99333116E-07  1.01154892E-02  1.09802629E-07 -6.99333116E-07  1.01154892E-02
  1.09802629E-07 -6.99333116E-07  1.01154892E-02  1.09802629E-07 -6.99333116E-07
  1.01154892E-02  1.09802629E-07 -6.99333116E-07  1.01154892E-02  1.09802629E-07
 -6.99333116E-07  1.01154892E-02  1.09802629E-07 -6.99333116E-07  1.01154892E-02
  1.09802629E-07 -6.99333116E-07  1.01154892E-02  1.09802629E-07 -6.99333116E-07
  1.01154892E-02  1.09802629E-07 -6.99333116E-07  1.01154892E-02  1.09802629E-07
 -6.99333116E-07  1.01154892E-02  1.09802629E-07 -6.99333116E-07 -1.09577141E+00
  1.77311416E+00  1.42544321E-07 -1.09577141E+00  1.77311416E+00  1.42544321E-07
 -1.09577141E+00  1.77311416E+00  1.42544321E-07 -1.09577141E+00  1.77311416E+00
  1.42544321E-07 -1.09577141E+00  1.77311416E+00  1.42544321E-07 -1.09577141E+00
  1.77311416E+00  1.42544321E-07 -1.09577141E+00  1.77311416E+00  1.42544321E-07
 -1.09577141E+00  1.77311416E+00  1.42544321E-07 -1.09577141E+00  1.77311416E+00
  1.42544321E-07 -1.09577166E+00 -1.77311468E+00  2.44755133E-07 -1.09577166E+00
 -1.77311468E+00  2.44755133E-07 -1.09577166E+00 -1.77311468E+00  2.44755133E-07
 -1.09577166E+00 -1.77311468E+00  2.44755133E-07 -1.09577166E+00 -1.77311468E+00
  2.44755133E-07 -1.09577166E+00 -1.77311468E+00  2.44755133E-07 -1.09577166E+00
 -1.77311468E+00  2.44755133E-07 -1.09577166E+00 -1.77311468E+00  2.44755133E-07
 -1.09577166E+00 -1.77311468E+00  2.44755133E-07
Constraint Structure                       R   N=          12
  2.27823914E+00  4.13899085E-07  3.12033662E-07  1.01154892E-02  1.09802629E-07
 -6.99333116E-07 -1.09577141E+00  1.77311416E+00  1.42544321E-07 -1.09577166E+00
 -1.77311468E+00  2.44755133E-07
Num ILSW                                   I              100
ILSW                                       I   N=         100
           1           0           0           0           2           0
           0           0           0           0         402          -1
           5           0           0           0           2           0
           0           0           0           0           1           0
           1           1           0           0           0           0
           0           0      100000           0          -1           0
           0           0           0           0           0           0
           0           0           0           1           0           0
           0           0           1           0           0           0
           0           0           4          40           0           0
           0           0           5           0           0           0
           0           0           0           0           0           0
           0           0           0           0           0           0
           0           0           0           0           0           0
           0           0           0           0           0           0
           0           0           0           0           0           0
           0           0           0           0
Num RLSW                                   I               40
RLSW                                       R   N=          40
  8.00000000E-01  7.20000000E-01  1.00000000E+00  8.10000000E-01  2.00000000E-01
  0.00000000E+00  0.00000000E+00  1.00000000E+00  0.00000000E+00  0.00000000E+00
  0.00000000E+00  0.00000000E+00  1.00000000E+00  0.00000000E+00  0.00000000E+00
  0.00000000E+00  0.00000000E+00  1.00000000E+00  0.00000000E+00  0.00000000E+00
  0.00000000E+00  0.00000000E+00  1.00000000E+00  0.00000000E+00  0.00000000E+00
  0.00000000E+00  0.00000000E+00  1.00000000E+00  0.00000000E+00  0.00000000E+00
  0.00000000E+00  0.00000000E+00  1.00000000E+00  0.00000000E+00  0.00000000E+00
  0.00000000E+00  0.00000000E+00  0.00000000E+00  1.00000000E+00  1.00000000E+00
MxBond                                     I                3
NBond                                      I   N=           4
           1           3           1           1
IBond                                      I   N=          12
           2           0           0           1           3           4
           2           0           0           2           0           0
RBond                                      R   N=          12
  1.00000000E-01  0.00000000E+00  0.00000000E+00  1.00000000E-01  1.00000000E-01
  1.00000000E-01  1.00000000E-01  0.00000000E+00  0.00000000E+00  1.00000000E-01
  0.00000000E+00  0.00000000E+00
Virial Ratio                               R      2.006107593546192E+00
SCF Energy                                 R     -1.145521470177172E+02
Total Energy                               R     -1.145521470177172E+02
S**2                                       R     -1.243449787580175E-14
S**2 after annihilation                    R      1.598721155460217E-14
RMS Force                                  R      1.178883169406045E-06
RMS Density                                R      2.302189762164985E-09
External E-field                           R   N=          35
  0.00000000E+00  0.00000000E+00  0.00000000E+00  0.00000000E+00  0.00000000E+00
  0.00000000E+00  0.00000000E+00  0.00000000E+00  0.00000000E+00  0.00000000E+00
  0.00000000E+00  0.00000000E+00  0.00000000E+00  0.00000000E+00  0.00000000E+00
  0.00000000E+00  0.00000000E+00  0.00000000E+00  0.00000000E+00  0.00000000E+00
  0.00000000E+00  0.00000000E+00  0.00000000E+00  0.00000000E+00  0.00000000E+00
  0.00000000E+00  0.00000000E+00  0.00000000E+00  0.00000000E+00  0.00000000E+00
  0.00000000E+00  0.00000000E+00  0.00000000E+00  0.00000000E+00  0.00000000E+00
IOpCl                                      I                1
IROHF                                      I                0
Alpha Orbital Energies                     R   N=         138
 -1.91561775E+01 -1.02798467E+01 -1.07447847E+00 -6.44551672E-01 -5.07128503E-01
 -4.63819419E-01 -4.13505880E-01 -2.81526291E-01 -6.39255176E-02 -1.04823844E-02
  1.54907169E-02  3.04317664E-02  4.87209935E-02  7.93779963E-02  8.95493320E-02
  1.09843767E-01  1.30183177E-01  1.32648071E-01  1.47132174E-01  1.67261138E-01
  1.76327826E-01  2.07365045E-01  2.31794581E-01  2.65997424E-01  2.67080085E-01
  2.82083166E-01  2.98903059E-01  3.08165628E-01  3.19074830E-01  3.29130375E-01
  3.78362117E-01  3.81659873E-01  4.32372014E-01  4.38147249E-01  5.23326867E-01
  5.37876520E-01  5.59634015E-01  6.47429502E-01  6.69814406E-01  6.78124456E-01
  7.02815806E-01  7.10668111E-01  7.23734658E-01  7.25135293E-01  7.86563423E-01
  7.94676696E-01  8.04522628E-01  8.41932082E-01  8.42352073E-01  8.65138834E-01
  8.75176207E-01  8.88976384E-01  8.90580587E-01  9.30605736E-01  9.42126567E-01
  9.52128058E-01  1.08666934E+00  1.08731132E+00  1.13733811E+00  1.19949850E+00
  1.20632261E+00  1.26524175E+00  1.30119371E+00  1.34097896E+00  1.38056070E+00
  1.39057735E+00  1.43703880E+00  1.50573558E+00  1.51117847E+00  1.60267502E+00
  1.73094841E+00  1.79080858E+00  1.80460228E+00  1.85652142E+00  1.96989424E+00
  2.02839631E+00  2.05746872E+00  2.06164548E+00  2.08858861E+00  2.21153040E+00
  2.21858595E+00  2.29214228E+00  2.32878984E+00  2.41965876E+00  2.51613648E+00
  2.52145035E+00  2.61809220E+00  2.65541941E+00  2.75713335E+00  2.76541990E+00
  2.83267309E+00  2.87039198E+00  3.09627466E+00  3.12522803E+00  3.22860379E+00
  3.23583964E+00  3.32498428E+00  3.34438854E+00  3.36366848E+00  3.56490271E+00
  3.59120769E+00  3.66381373E+00  3.79644606E+00  3.80456262E+00  3.85191719E+00
  3.86412760E+00  3.88867051E+00  4.02705292E+00  4.22217939E+00  4.32152472E+00
  4.37333782E+00  4.41575609E+00  4.61913335E+00  4.65711228E+00  4.76411476E+00
  4.78412882E+00  4.89408756E+00  4.91881411E+00  4.95992868E+00  4.98770921E+00
  5.48361071E+00  5.73882416E+00  5.77425701E+00  6.09509513E+00  6.13367115E+00
  6.18117033E+00  6.44899911E+00  6.48424905E+00  6.62337842E+00  6.65668380E+00
  6.68072235E+00  6.91064443E+00  6.98980516E+00  7.18033796E+00  7.19125219E+00
  7.25965790E+00  1.42825365E+01  1.55329192E+01
Beta Orbital Energies                      R   N=         138
 -1.91561775E+01 -1.02798467E+01 -1.07447847E+00 -6.44551672E-01 -5.07128503E-01
 -4.63819419E-01 -4.13505880E-01 -2.81526291E-01 -6.39255176E-02 -1.04823844E-02
  1.54907169E-02  3.04317664E-02  4.87209935E-02  7.93779963E-02  8.95493320E-02
  1.09843767E-01  1.30183177E-01  1.32648071E-01  1.47132174E-01  1.67261138E-01
  1.76327826E-01  2.07365045E-01  2.31794581E-01  2.65997424E-01  2.67080085E-01
  2.82083166E-01  2.98903059E-01  3.08165628E-01  3.19074830E-01  3.29130375E-01
  3.78362117E-01  3.81659873E-01  4.32372014E-01  4.38147249E-01  5.23326867E-01
  5.37876520E-01  5.59634015E-01  6.47429502E-01  6.69814406E-01  6.78124456E-01
  7.02815806E-01  7.10668111E-01  7.23734658E-01  7.25135293E-01  7.86563423E-01
  7.94676696E-01  8.04522628E-01  8.41932082E-01  8.42352073E-01  8.65138834E-01
  8.75176207E-01  8.88976384E-01  8.90580587E-01  9.30605736E-01  9.42126567E-01
  9.52128058E-01  1.08666934E+00  1.08731132E+00  1.13733811E+00  1.19949850E+00
  1.20632261E+00  1.26524175E+00  1.30119371E+00  1.34097896E+00  1.38056070E+00
  1.39057735E+00  1.43703880E+00  1.50573558E+00  1.51117847E+00  1.60267502E+00
  1.73094841E+00  1.79080858E+00  1.80460228E+00  1.85652142E+00  1.96989424E+00
  2.02839631E+00  2.05746872E+00  2.06164548E+00  2.08858861E+00  2.21153040E+00
  2.21858595E+00  2.29214228E+00  2.32878984E+00  2.41965876E+00  2.51613648E+00
  2.52145035E+00  2.61809220E+00  2.65541941E+00  2.75713335E+00  2.76541990E+00
  2.83267309E+00  2.87039198E+00  3.09627466E+00  3.12522803E+00  3.22860379E+00
  3.23583964E+00  3.32498428E+00  3.34438854E+00  3.36366848E+00  3.56490271E+00
  3.59120769E+00  3.66381373E+00  3.79644606E+00  3.80456262E+00  3.85191719E+00
  3.86412760E+00  3.88867051E+00  4.02705292E+00  4.22217939E+00  4.32152472E+00
  4.37333782E+00  4.41575609E+00  4.61913335E+00  4.65711228E+00  4.76411476E+00
  4.78412882E+00  4.89408756E+00  4.91881411E+00  4.95992868E+00  4.98770921E+00
  5.48361071E+00  5.73882416E+00  5.77425701E+00  6.09509513E+00  6.13367115E+00
  6.18117033E+00  6.44899911E+00  6.48424905E+00  6.62337842E+00  6.65668380E+00
  6.68072235E+00  6.91064443E+00  6.98980516E+00  7.18033796E+00  7.19125219E+00
  7.25965790E+00  1.42825365E+01  1.55329192E+01
Alpha MO coefficients                      R   N=       19044
  9.73114226E-01 -1.01068652E-02  5.14364433E-02  5.70451750E-03  8.06416830E-04
 -1.57454939E-03 -3.01587197E-10 -7.33580374E-10  1.47032524E-04  3.26762900E-10
  2.40630529E-10  2.94139044E-03  2.44350711E-09 -1.02714349E-10  2.24911916E-04
  2.25724022E-10 -5.39533318E-10 -2.03099374E-04  2.80092262E-10  1.60100889E-13
  3.57284538E-04  8.24772853E-11  5.33166828E-04 -6.10470753E-10  5.02045773E-12
 -7.49125292E-04 -3.18319213E-10  1.30987080E-03 -1.18615204E-09  2.68598874E-11
 -1.33724977E-03 -1.06467917E-09  6.21138847E-11  6.03448127E-05 -5.78873631E-12
 -3.70307874E-11  1.08819954E-12 -4.76644178E-05  1.02866621E-11 -6.89648713E-10
 -6.70451521E-04 -2.83180852E-11  6.11838303E-10 -1.41352860E-11  4.65414316E-04
  1.73848965E-10  1.86549337E-04  2.04081256E-03  1.58310608E-03 -6.09722084E-03
 -4.78475723E-05  5.37519646E-04 -5.53055403E-11  2.74683590E-10  2.56653114E-03
  2.41016145E-09  7.65206535E-10 -1.31425364E-03 -3.50115412E-09 -5.20345670E-10
  6.44517168E-05  7.34887815E-12  2.67771397E-10 -1.68517831E-04  3.42835332E-10
  2.25554245E-12  3.68445711E-04  7.46488424E-11  1.60815318E-03 -5.89725496E-10
  3.20114963E-11 -1.67451151E-03 -5.88094165E-10  5.50657515E-04  3.22870161E-11
 -6.87287777E-11 -3.33737992E-03 -4.97877251E-10  4.15726839E-10  2.33454198E-04
 -1.25704198E-10 -6.39386998E-10 -1.76494461E-11 -8.00818836E-04 -6.89945713E-10
 -1.52494187E-10 -1.35334896E-04 -8.76001242E-12 -8.55824329E-10 -4.96138807E-11
 -1.23044364E-03 -2.32683705E-09  2.67025693E-04  2.47477479E-03 -6.25218069E-04
  5.41178314E-06  1.60022757E-04 -1.61354445E-04 -7.74019117E-11 -3.32671387E-04
 -8.69205306E-04 -1.50555050E-09 -1.49614801E-03 -1.16413153E-03 -5.34954032E-11
  6.96760294E-05 -2.66888898E-10  1.04777163E-10 -1.54785807E-04 -4.99506496E-05
  4.22983766E-06  9.66808634E-11  4.60080580E-10 -3.54118466E-04  2.23550594E-04
  2.67025153E-04  2.47477662E-03 -6.25224901E-04  5.41200010E-06  1.60022802E-04
  1.61354492E-04 -8.66937796E-11 -3.32666508E-04  8.69205548E-04 -1.55562400E-09
 -1.49614788E-03  1.16412897E-03 -1.20665008E-10  6.96756494E-05 -2.69718135E-10
 -1.06694405E-10 -1.54785379E-04  4.99512210E-05  4.22940446E-06  1.09536090E-10
 -4.80081608E-10 -3.54117935E-04 -2.23549653E-04  7.57124529E-05  2.17298337E-03
  1.01455700E-03 -8.65724296E-03 -3.17962333E-03 -7.74641968E-04 -6.02821147E-11
 -1.85247962E-10  3.33128291E-03  3.53535294E-10  6.77963404E-10  1.40944444E-02
  6.61332617E-09 -6.93668264E-10  1.14871737E-03  2.97705136E-09 -8.36399551E-10
 -1.07807444E-04 -5.71404559E-11 -9.74342363E-13  1.52963005E-04  3.18742055E-11
  2.17462717E-03 -1.79407712E-09  4.56368981E-12 -3.60824043E-03 -6.72162350E-10
  3.59459200E-03 -2.28671773E-09  7.44628383E-11 -3.64158684E-03 -3.41809983E-09
 -1.09614157E-10 -1.60344644E-04 -1.46615182E-11  4.75307385E-10  7.40306711E-12
  4.17688404E-04  1.12530981E-10 -1.38607548E-09 -1.46958646E-03 -5.27494306E-11
  1.10028941E-09 -1.36478138E-11  1.50969697E-03  5.34721773E-10  9.76905843E-01
  1.23772268E-02  5.39070962E-02  3.40061268E-02  8.11195240E-03  9.74898526E-04
 -2.81931749E-10 -3.79776657E-10  3.94305040E-03  3.79818873E-08  1.40488818E-08
 -5.45898947E-03  1.94618574E-08  5.16412626E-09 -2.21729150E-04 -1.31700631E-09
  6.34042718E-10 -2.83236828E-03  1.04072175E-09 -1.09597554E-10  1.10316211E-03
 -2.54107448E-09 -6.04095551E-04  3.67639718E-10 -6.78495192E-11 -1.30875781E-03
 -1.55759552E-08 -1.20369000E-04  1.79086317E-09 -2.08606046E-10 -7.02978269E-03
 -5.04128566E-09 -2.29617110E-09 -2.09333945E-04 -1.53817267E-09  5.98664413E-10
  8.33035556E-11  2.63013319E-03  1.04878595E-09 -5.93130445E-10  5.37727012E-04
 -1.22385259E-09 -3.55746167E-10 -1.44252751E-10 -4.78133130E-03 -2.70071053E-09
  6.57346260E-04 -4.75428805E-03 -1.73669434E-02 -1.11792692E-03 -5.40416450E-04
  7.24180412E-04  3.91458577E-10 -2.98542778E-03  4.82751103E-03 -2.28527870E-10
 -5.75927107E-03  1.91817250E-03  3.73566992E-09  8.51793222E-04  4.77840591E-10
 -6.62346604E-10  6.41592352E-04  1.44288136E-03  1.42972476E-03  7.82145260E-10
 -4.37673918E-10  5.56748521E-05  8.28354019E-04  6.57346666E-04 -4.75421503E-03
 -1.73668776E-02 -1.11792600E-03 -5.40414784E-04 -7.24177845E-04  4.33203688E-10
 -2.98540435E-03 -4.82747738E-03  4.97265118E-11 -5.75925965E-03 -1.91815498E-03
  3.84625885E-09  8.51791450E-04  5.61015112E-10  7.84374225E-10  6.41591076E-04
 -1.44287803E-03  1.42971996E-03  8.29905094E-10  5.83625298E-10  5.56717969E-05
 -8.28346999E-04 -1.90650251E-01  4.33877380E-01  1.28790756E-01  2.51518890E-01
  3.38065515E-02 -9.59576727E-02 -1.17845247E-08 -4.04505980E-08 -1.14394406E-01
 -1.57540556E-08 -4.61857972E-08 -2.74844135E-02 -4.91064887E-09 -7.77612711E-09
 -1.74734352E-03  2.71370617E-09 -9.26336286E-10 -3.14245482E-03  5.39275345E-09
  4.03927132E-11  6.84060140E-03  1.78826532E-09 -7.77883316E-03  1.46899443E-08
  1.35340963E-10  1.81566124E-02  5.85194460E-09  1.96454135E-03 -5.59941366E-09
  2.57680801E-11 -2.50964667E-03 -1.16892991E-09  2.35939503E-09  2.22869924E-03
  3.99585607E-10 -3.36648541E-09 -7.06603610E-12 -3.07625837E-03 -1.43754446E-09
  2.95089911E-09  1.36698857E-03 -9.95259060E-11 -2.56608943E-09 -3.99747133E-11
 -2.89463001E-03 -1.11440655E-09 -1.11661605E-01  2.35724877E-01  6.04168938E-02
  1.28671551E-01  3.24608133E-03  1.11175840E-01  2.22543576E-08  5.27136760E-08
  6.66948799E-02  3.50393076E-08  5.98727620E-08 -2.95198055E-02  2.60687837E-08
  7.20507916E-09 -2.54370882E-03 -2.65853449E-09 -1.33936703E-09 -1.04047284E-02
  1.19897099E-08 -1.13504210E-10  1.40823677E-02  2.54915442E-09 -1.73313808E-02
 -1.82632035E-09 -9.44967423E-10 -2.76838661E-03 -5.43915531E-09  7.79694164E-04
 -2.46100653E-09 -4.95745352E-10 -1.85451174E-02 -5.50222291E-09 -6.40495538E-09
 -1.66180200E-03  2.73338821E-10  3.94332730E-09  2.42129402E-10  9.00125442E-03
  4.57939117E-09 -1.85526397E-09  2.67048409E-03 -1.00537773E-09 -8.86711301E-09
  1.87160428E-10  1.85091518E-03  3.71866690E-09  1.48783933E-02 -2.29232751E-02
 -5.21218170E-02 -1.66974863E-03  9.06852812E-04  2.30729940E-04  6.66042619E-10
 -8.86262115E-03  1.30297976E-02  7.89182259E-09 -1.71927092E-02  8.08586546E-03
  1.00624009E-08  1.71961909E-04  7.61840280E-10 -1.25651977E-09  1.36816640E-03
  6.49729819E-04  2.85712271E-03  5.30177718E-10 -3.86420250E-09 -9.68085916E-04
  3.70578486E-03  1.48783786E-02 -2.29232369E-02 -5.21217332E-02 -1.66975117E-03
  9.06849370E-04 -2.30730627E-04  6.79398768E-10 -8.86261777E-03 -1.30297835E-02
  8.64254463E-09 -1.71926947E-02 -8.08585138E-03  1.05281262E-08  1.71964401E-04
  7.99228269E-10  1.35247320E-09  1.36816399E-03 -6.49733370E-04  2.85712041E-03
  7.43709315E-10  4.09352544E-09 -9.68086570E-04 -3.70578345E-03  8.42091256E-02
 -2.06204303E-01 -6.44074074E-02 -2.04330196E-01 -2.88813157E-02 -6.17835458E-02
  3.00515229E-08  2.77722299E-09 -6.55441733E-02  3.63151985E-08  7.37720441E-09
 -2.87511019E-02  1.72448038E-08  1.38688339E-08 -6.05868457E-04  2.37683333E-09
  3.83931249E-09 -1.32629489E-03 -3.60088585E-10 -2.46446085E-11  1.44374816E-03
 -2.09833656E-09 -2.41730462E-03 -3.88231326E-09 -8.02782030E-11  1.40704111E-03
 -6.38106934E-09 -1.10320775E-03 -2.89607192E-09 -5.99514165E-11 -1.68790746E-04
  1.92056573E-10 -5.82528169E-10  2.68067677E-04 -2.19708879E-10  4.64442387E-10
 -5.04519668E-12 -4.88283427E-04  1.40432544E-09  4.22427992E-10 -4.87131307E-04
 -2.02284872E-10  1.61707690E-09 -9.96553212E-12  3.47338357E-04  1.34927388E-09
 -1.57171829E-01  3.68172614E-01  9.95938369E-02  2.84251158E-01  1.74771485E-02
 -1.20880631E-01  1.00473156E-07  3.77689771E-08 -1.25274195E-01  8.64896143E-08
  4.15185302E-08 -6.12820866E-02  5.69237517E-08  2.18570718E-08  1.04720539E-04
  7.38029428E-10 -1.21047436E-10 -4.79803362E-03 -5.23219854E-09 -4.57843766E-10
 -7.57516474E-03 -5.25294425E-09 -1.06743506E-02 -8.45271718E-09 -7.86041496E-10
 -8.79257550E-03 -5.76234244E-09 -3.96454454E-03 -7.88176911E-09 -2.06984180E-12
  6.77668926E-03 -1.03872229E-08 -2.70768300E-09  7.96802253E-04  1.49118249E-09
  8.65523055E-10  1.41245734E-10  2.97149021E-03  9.54881924E-10 -1.63594646E-09
  1.83338836E-03 -1.60798878E-09 -5.84546644E-09  3.14043776E-10  6.52802641E-03
  2.87652162E-09  1.12180352E-01  1.16881557E-01 -5.79535291E-03 -1.46385729E-03
  4.50023231E-03 -1.03517122E-02 -3.58121567E-09 -9.10350329E-04 -7.14779110E-03
 -7.68204756E-10 -1.31457735E-03  1.29258565E-02  2.04172866E-09 -1.31803949E-03
 -4.94906623E-10  1.33361621E-09 -1.99821859E-03 -1.80165060E-03  7.30096886E-04
 -2.51010535E-09 -2.25297823E-09  3.12193444E-04  7.49102328E-04  1.12180207E-01
  1.16881435E-01 -5.79526580E-03 -1.46385625E-03  4.50022234E-03  1.03516978E-02
 -4.17807967E-09 -9.10355809E-04  7.14778794E-03 -1.18027082E-09 -1.31457203E-03
 -1.29258328E-02  2.78845074E-09 -1.31803792E-03 -5.98756616E-10 -1.58045036E-09
 -1.99821778E-03  1.80164732E-03  7.30096563E-04 -2.46675028E-09  2.34418997E-09
  3.12192638E-04 -7.49105019E-04 -4.79989051E-08  1.20565461E-07  3.79276875E-08
  1.49206858E-07  3.05883062E-08  9.70818101E-08  1.68242730E-01 -4.85002099E-09
  1.06247089E-07  1.96953406E-01 -5.67738249E-09  5.09763793E-08  1.34351974E-01
 -3.87318600E-09  2.04055015E-09  1.87212999E-02 -5.36629807E-10  2.23212371E-09
  2.09260770E-10 -3.03211326E-09 -1.59561389E-09 -7.26255867E-03  4.63409058E-09
  5.89531539E-10 -6.73422401E-09 -8.01478759E-10 -2.04524697E-02  7.28145932E-10
  3.32893651E-10  3.43722518E-09  1.91864068E-09 -1.15614240E-02  3.78235131E-11
 -5.42630994E-10 -5.36686184E-04 -1.34363979E-10  3.05396633E-09 -6.95419691E-10
  4.49715587E-03 -7.90335189E-12 -4.52289128E-10  1.10380537E-04 -1.14297761E-10
 -8.26663925E-10 -6.76553194E-10  3.09287217E-03  6.37050026E-08 -1.56644487E-07
 -3.78959763E-08 -1.24567881E-07 -1.48985646E-08 -5.64416658E-08  2.49565723E-01
 -7.19290680E-09 -6.03696726E-08  2.83835502E-01 -8.18075690E-09 -4.30086490E-09
  1.16160049E-01 -3.35005397E-09 -3.98932927E-10 -6.16906988E-03  1.73256305E-10
  1.83166144E-09  3.96015329E-11  1.26933782E-08 -4.84631810E-09 -1.37310461E-03
  2.27702414E-09  6.11761004E-10  1.84720084E-08  3.64342346E-09 -2.12020079E-02
  7.06942503E-10  8.54117766E-10 -1.93812315E-08  9.02422143E-09 -2.96284587E-02
  1.27771125E-10  2.82741038E-10 -1.81121358E-03 -1.05336017E-10  1.31013649E-09
 -8.16884353E-09  5.32049390E-03  3.52895690E-11 -7.70487888E-10 -4.99866622E-04
 -1.75741093E-10 -1.45178553E-08 -2.64285115E-09  5.62592698E-03  1.19938080E-01
  1.38219894E-01  7.39282063E-03  5.79691759E-03  8.23792084E-03 -7.71179170E-03
 -4.48753948E-09  8.31333085E-03  8.48633977E-03 -6.66236428E-09  4.01000296E-03
  1.18788142E-02  2.25643900E-08 -1.38815637E-03 -2.44339229E-09  1.19833603E-09
  1.35381012E-03 -3.47043700E-03  1.37979893E-03  5.53419031E-10 -1.72219851E-09
  2.41514091E-03  1.92952366E-03 -1.19938090E-01 -1.38219976E-01 -7.39283402E-03
 -5.79691535E-03 -8.23791433E-03 -7.71179034E-03  4.93221464E-09 -8.31333579E-03
  8.48631403E-03  6.17351770E-09 -4.00998940E-03  1.18788177E-02 -2.32452345E-08
  1.38815889E-03  2.64342598E-09  1.25889326E-09 -1.35380733E-03 -3.47043881E-03