testing the scripts
SP        UHF                                                         6-31G(d,p)
Number of atoms                            I                4
Info1-9                                    I   N=           9
          16          10           0           0           0         110
           1           1           2
Full Title                                 C   N=           2
testing the scripts
Route                                      C   N=           3
# uhf/6-31g** Geom=Check Guess=Read
Charge                                     I               -1
Multiplicity                               I                2
Number of electrons                        I               17
Number of alpha electrons                  I                9
Number of beta electrons                   I                8
Number of basis functions                  I               40
Number of independent functions            I               40
Number of point charges in /Mol/           I                0
Number of translation vectors              I                0
Atomic numbers                             I   N=           4
           8           6           1           1
Nuclear charges                            R   N=           4
  8.00000000E+00  6.00000000E+00  1.00000000E+00  1.00000000E+00
Current cartesian coordinates              R   N=          12
 -1.23259516E-32  1.00530930E-32  1.27229733E+00  0.00000000E+00 -1.32254311E-32
 -9.95825669E-01  0.00000000E+00  1.77311490E+00 -2.10171229E+00 -2.17143949E-16
 -1.77311490E+00 -2.10171229E+00
Number of symbols in /Mol/                 I                0
Int Atom Types                             I   N=           4
           0           0           0           0
Force Field                                I                0
Atom Types                                 C   N=           4

MM charges                                 R   N=           4
  0.00000000E+00  0.00000000E+00  0.00000000E+00  0.00000000E+00
Integer atomic weights                     I   N=           4
          16          12           1           1
Real atomic weights                        R   N=           4
  1.59949146E+01  1.20000000E+01  1.00782504E+00  1.00782504E+00
Atom fragment info                         I   N=           4
           0           0           0           0
Atom residue num                           I   N=           4
           0           0           0           0
Nuclear spins                              I   N=           4
           0           0           1           1
Nuclear ZEff                               R   N=           4
 -5.60000000E+00 -3.60000000E+00 -1.00000000E+00 -1.00000000E+00
Nuclear ZNuc                               R   N=           4
  8.00000000E+00  6.00000000E+00  1.00000000E+00  1.00000000E+00
Nuclear QMom                               R   N=           4
  0.00000000E+00  0.00000000E+00  0.00000000E+00  0.00000000E+00
Nuclear GFac                               R   N=           4
  0.00000000E+00  0.00000000E+00  2.79284600E+00  2.79284600E+00
MicOpt                                     I   N=           4
          -1          -1          -1          -1
Number of residues                         I                0
Number of secondary structures             I                0
SymInf integers                            I   N=          26
           2           4           1           1           1          -1
          -1           1          -1           1           1           1
          -1           1           0           0           0           0
           0           0           0           0           0           0
           0           0
RotTr to input orientation                 R   N=          12
  6.12323400E-17 -1.87390684E-16 -1.00000000E+00 -8.28405811E-17  1.00000000E+00
 -1.87390684E-16  1.00000000E+00  8.28405811E-17  6.12323400E-17  1.00594137E+00
  0.00000000E+00  1.35714968E-17
Number of contracted shells                I               14
Number of primitive shells                 I               32
Pure/Cartesian d shells                    I                1
Pure/Cartesian f shells                    I                0
Highest angular momentum                   I                2
Largest degree of contraction              I                6
Shell types                                I   N=          14
           0          -1          -1           2           0          -1
          -1           2           0           0           1           0
           0           1
Number of primitives per shell             I   N=          14
           6           3           1           1           6           3
           1           1           3           1           1           3
           1           1
Shell to atom map                          I   N=          14
           1           1           1           1           2           2
           2           2           3           3           3           4
           4           4
Primitive exponents                        R   N=          32
  5.48467166E+03  8.25234946E+02  1.88046958E+02  5.29645000E+01  1.68975704E+01
  5.79963534E+00  1.55396162E+01  3.59993359E+00  1.01376175E+00  2.70005823E-01
  8.00000000E-01  3.04752488E+03  4.57369518E+02  1.03948685E+02  2.92101553E+01
  9.28666296E+00  3.16392696E+00  7.86827235E+00  1.88128854E+00  5.44249258E-01
  1.68714478E-01  8.00000000E-01  1.87311370E+01  2.82539436E+00  6.40121692E-01
  1.61277759E-01  1.10000000E+00  1.87311370E+01  2.82539436E+00  6.40121692E-01
  1.61277759E-01  1.10000000E+00
Contraction coefficients                   R   N=          32
  1.83107443E-03  1.39501722E-02  6.84450781E-02  2.32714336E-01  4.70192898E-01
  3.58520853E-01 -1.10777550E-01 -1.48026263E-01  1.13076702E+00  1.00000000E+00
  1.00000000E+00  1.83473713E-03  1.40373228E-02  6.88426223E-02  2.32184443E-01
  4.67941348E-01  3.62311985E-01 -1.19332420E-01 -1.60854152E-01  1.14345644E+00
  1.00000000E+00  1.00000000E+00  3.34946043E-02  2.34726953E-01  8.13757326E-01
  1.00000000E+00  1.00000000E+00  3.34946043E-02  2.34726953E-01  8.13757326E-01
  1.00000000E+00  1.00000000E+00
P(S=P) Contraction coefficients            R   N=          32
  0.00000000E+00  0.00000000E+00  0.00000000E+00  0.00000000E+00  0.00000000E+00
  0.00000000E+00  7.08742682E-02  3.39752839E-01  7.27158577E-01  1.00000000E+00
  0.00000000E+00  0.00000000E+00  0.00000000E+00  0.00000000E+00  0.00000000E+00
  0.00000000E+00  0.00000000E+00  6.89990666E-02  3.16423961E-01  7.44308291E-01
  1.00000000E+00  0.00000000E+00  0.00000000E+00  0.00000000E+00  0.00000000E+00
  0.00000000E+00  0.00000000E+00  0.00000000E+00  0.00000000E+00  0.00000000E+00
  0.00000000E+00  0.00000000E+00
Coordinates of each shell                  R   N=          42
 -3.92056883E-33  7.84113765E-33  1.27229733E+00 -3.92056883E-33  7.84113765E-33
  1.27229733E+00 -3.92056883E-33  7.84113765E-33  1.27229733E+00 -3.92056883E-33
  7.84113765E-33  1.27229733E+00  3.06862476E-33 -6.13724952E-33 -9.95825669E-01
  3.06862476E-33 -6.13724952E-33 -9.95825669E-01  3.06862476E-33 -6.13724952E-33
 -9.95825669E-01  3.06862476E-33 -6.13724952E-33 -9.95825669E-01  0.00000000E+00
  1.77311490E+00 -2.10171229E+00  0.00000000E+00  1.77311490E+00 -2.10171229E+00
  0.00000000E+00  1.77311490E+00 -2.10171229E+00 -2.17143949E-16 -1.77311490E+00
 -2.10171229E+00 -2.17143949E-16 -1.77311490E+00 -2.10171229E+00 -2.17143949E-16
 -1.77311490E+00 -2.10171229E+00
Num ILSW                                   I              100
ILSW                                       I   N=         100
           1           1           0           0           2           0
           0           0           0           0           0          -1
           5           0           0           0           0           0
           0           0           1           0           0           0
           1           0           0           0           0           0
           0           0      100000           0          -1           0
           0           0           0           0           0           0
           0           0           0           1           0           0
           0 -2000000000           1           0           0           0
           0           0           4          52           0           0
           0           0           0           0           0           0
           0           0           0           0           0           1
           0           0           0           0           0           0
           0           0           0           0           0           0
           0           0           0           0           0           0
           0           0           0           0           0           0
           0           0           0           0
Num RLSW                                   I               52
RLSW                                       R   N=          52
  1.00000000E+00  1.00000000E+00  1.00000000E+00  1.00000000E+00  1.00000000E+00
  0.00000000E+00  0.00000000E+00  1.00000000E+00  0.00000000E+00  0.00000000E+00
  0.00000000E+00  0.00000000E+00  1.00000000E+00  0.00000000E+00  0.00000000E+00
  0.00000000E+00  0.00000000E+00  1.00000000E+00  0.00000000E+00  0.00000000E+00
  0.00000000E+00  0.00000000E+00  1.00000000E+00  0.00000000E+00  0.00000000E+00
  0.00000000E+00  0.00000000E+00  1.00000000E+00  0.00000000E+00  0.00000000E+00
  0.00000000E+00  0.00000000E+00  1.00000000E+00  0.00000000E+00  0.00000000E+00
  0.00000000E+00  0.00000000E+00  0.00000000E+00  1.00000000E+00  1.00000000E+00
  0.00000000E+00  1.00000000E+00  0.00000000E+00  0.00000000E+00  0.00000000E+00
  0.00000000E+00  0.00000000E+00  0.00000000E+00  0.00000000E+00  0.00000000E+00
  0.00000000E+00  0.00000000E+00
MxBond                                     I                3
NBond                                      I   N=           4
           1           3           1           1
IBond                                      I   N=          12
           2           0           0           1           3           4
           2           0           0           2           0           0
RBond                                      R   N=          12
  2.00000000E+00  0.00000000E+00  0.00000000E+00  2.00000000E+00  1.00000000E+00
  1.00000000E+00  1.00000000E+00  0.00000000E+00  0.00000000E+00  1.00000000E+00
  0.00000000E+00  0.00000000E+00
Virial Ratio                               R      1.997774364660106E+00
SCF Energy                                 R     -1.137721866924887E+02
Total Energy                               R     -1.137721866924887E+02
S**2                                       R      7.630675800165223E-01
S**2 after annihilation                    R      7.501258161645686E-01
RMS Density                                R      4.099151555302111E-09
Job Status                                 I                1
Nuclear derivative order                   I                0
External E-field                           R   N=          35
  0.00000000E+00  0.00000000E+00  0.00000000E+00  0.00000000E+00  0.00000000E+00
  0.00000000E+00  0.00000000E+00  0.00000000E+00  0.00000000E+00  0.00000000E+00
  0.00000000E+00  0.00000000E+00  0.00000000E+00  0.00000000E+00  0.00000000E+00
  0.00000000E+00  0.00000000E+00  0.00000000E+00  0.00000000E+00  0.00000000E+00
  0.00000000E+00  0.00000000E+00  0.00000000E+00  0.00000000E+00  0.00000000E+00
  0.00000000E+00  0.00000000E+00  0.00000000E+00  0.00000000E+00  0.00000000E+00
  0.00000000E+00  0.00000000E+00  0.00000000E+00  0.00000000E+00  0.00000000E+00
IOpCl                                      I                1
IROHF                                      I                0
Alpha Orbital Energies                     R   N=          40
 -2.01996489E+01 -1.09546131E+01 -1.06234106E+00 -5.56034404E-01 -3.46289118E-01
 -3.03918483E-01 -2.92752610E-01 -9.62020362E-02  4.88922313E-02  5.03735167E-01
  6.10795966E-01  6.60278468E-01  1.01229043E+00  1.12665738E+00  1.13880249E+00
  1.30257060E+00  1.38275253E+00  1.39399961E+00  1.41810279E+00  1.54058531E+00
  1.64684501E+00  1.94108661E+00  1.95882957E+00  2.08031302E+00  2.29370230E+00
  2.43803283E+00  2.45426173E+00  2.63099228E+00  2.63458799E+00  2.77022668E+00
  2.87469971E+00  3.18431369E+00  3.29715540E+00  3.39198023E+00  3.48895351E+00
  3.65071597E+00  3.96658430E+00  4.20578720E+00  4.47082802E+00  5.01523200E+00
Beta Orbital Energies                      R   N=          40
 -2.01810235E+01 -1.09391813E+01 -1.01674840E+00 -4.89045384E-01 -3.33036874E-01
 -2.82073661E-01 -1.36302786E-01 -8.13140919E-02  5.22254959E-01  5.22319799E-01
  6.19456057E-01  6.75857385E-01  1.10257208E+00  1.14818281E+00  1.15524910E+00
  1.32036261E+00  1.38209842E+00  1.41791282E+00  1.43475932E+00  1.62683572E+00
  1.65852700E+00  1.95372809E+00  2.00712781E+00  2.13819200E+00  2.32048447E+00
  2.46078008E+00  2.47031218E+00  2.63253436E+00  2.65102732E+00  2.81257081E+00
  2.89091700E+00  3.20570178E+00  3.34051104E+00  3.39544451E+00  3.49773538E+00
  3.66215003E+00  3.97277151E+00  4.21277204E+00  4.48870121E+00  5.03522805E+00
Alpha MO coefficients                      R   N=        1600
  9.94448824E-01  2.17946312E-02  0.00000000E+00  0.00000000E+00 -1.44825349E-03
  5.00124706E-03  0.00000000E+00  0.00000000E+00  3.93794995E-05 -4.10643687E-03
 -4.29873608E-03 -4.05535029E-03  0.00000000E+00  0.00000000E+00  0.00000000E+00
  1.52422395E-05  5.49690530E-04  0.00000000E+00  0.00000000E+00 -5.43446753E-05
 -5.20650324E-04  0.00000000E+00  0.00000000E+00 -5.67792270E-04 -7.52607724E-05
  4.66780744E-05 -7.51343651E-04  0.00000000E+00  0.00000000E+00  0.00000000E+00
 -3.25274054E-05 -1.14431960E-04  0.00000000E+00 -3.88174978E-06 -7.28723942E-05
 -3.25274054E-05 -1.14431960E-04  0.00000000E+00  3.88174978E-06 -7.28723942E-05
 -3.50428053E-04  4.34822380E-04  0.00000000E+00  0.00000000E+00 -4.00176306E-04
 -1.48121545E-03  0.00000000E+00  0.00000000E+00  1.34635080E-03  7.42861094E-05
  2.11565069E-05  1.28881719E-05  0.00000000E+00  0.00000000E+00  0.00000000E+00
  9.95268694E-01  2.88138222E-02  0.00000000E+00  0.00000000E+00  3.41350969E-04
 -6.44125059E-03  0.00000000E+00  0.00000000E+00  1.61045775E-03 -2.45692698E-03
 -2.77492669E-03 -2.11105383E-03  0.00000000E+00  0.00000000E+00  0.00000000E+00
 -3.18063955E-04  1.92324145E-03  0.00000000E+00  1.88422760E-04 -1.61404502E-04
 -3.18063955E-04  1.92324145E-03  0.00000000E+00 -1.88422760E-04 -1.61404502E-04
 -1.99985531E-01  4.43314942E-01  0.00000000E+00  0.00000000E+00 -1.25407142E-01
  3.83845096E-01  0.00000000E+00  0.00000000E+00 -2.80520360E-02  4.42896149E-03
 -1.53703677E-03  1.31299820E-02  0.00000000E+00  0.00000000E+00  0.00000000E+00
 -1.10497088E-01  2.05523814E-01  0.00000000E+00  0.00000000E+00  1.69627844E-01
  8.84075573E-02  0.00000000E+00  0.00000000E+00 -8.09505834E-03 -1.53828234E-02
 -2.05075592E-02  2.86443596E-02  0.00000000E+00  0.00000000E+00  0.00000000E+00
  2.81276955E-02 -4.27701882E-04  0.00000000E+00 -3.98346410E-03  4.09674825E-03
  2.81276955E-02 -4.27701882E-04  0.00000000E+00  3.98346410E-03  4.09674825E-03
  8.80057835E-02 -1.86143742E-01  0.00000000E+00  0.00000000E+00 -1.42600318E-01
 -3.06962102E-01  0.00000000E+00  0.00000000E+00 -7.24224357E-02 -2.95651172E-03
  2.36886046E-03  1.78735359E-02  0.00000000E+00  0.00000000E+00  0.00000000E+00
 -1.63425452E-01  3.13653308E-01  0.00000000E+00  0.00000000E+00 -1.61079274E-01
  3.36543403E-01  0.00000000E+00  0.00000000E+00 -7.25201598E-02  6.20588479E-04
  7.68357831E-03 -1.32358312E-02  0.00000000E+00  0.00000000E+00  0.00000000E+00
  1.66430003E-01  9.44881750E-02  0.00000000E+00 -1.16779450E-02  5.67619856E-03
  1.66430003E-01  9.44881750E-02  0.00000000E+00  1.16779450E-02  5.67619856E-03
  0.00000000E+00  0.00000000E+00  0.00000000E+00  3.18978334E-01  0.00000000E+00
  0.00000000E+00  0.00000000E+00  2.02997014E-01  0.00000000E+00  0.00000000E+00
  0.00000000E+00  0.00000000E+00  0.00000000E+00  0.00000000E+00 -2.10341401E-02
  0.00000000E+00  0.00000000E+00  0.00000000E+00  3.73254516E-01  0.00000000E+00
  0.00000000E+00  0.00000000E+00  1.29676215E-01  0.00000000E+00  0.00000000E+00
  0.00000000E+00  0.00000000E+00  0.00000000E+00  0.00000000E+00 -4.99767442E-03
  1.81239698E-01  1.90206357E-01  0.00000000E+00 -7.63295709E-03  6.66217932E-03
 -1.81239698E-01 -1.90206357E-01  0.00000000E+00 -7.63295709E-03 -6.66217932E-03
 -6.21992534E-02  1.25237384E-01  0.00000000E+00  0.00000000E+00  4.96100382E-01
  3.20150972E-01  0.00000000E+00  0.00000000E+00  3.17842605E-01  7.47169346E-03
  1.24001160E-03 -4.07173095E-02  0.00000000E+00  0.00000000E+00  0.00000000E+00
  2.71170779E-02 -7.04249023E-02  0.00000000E+00  0.00000000E+00 -3.58774532E-01
  1.87951204E-02  0.00000000E+00  0.00000000E+00 -7.33271977E-02  8.90024143E-03
  2.24961238E-02 -1.77872873E-02  0.00000000E+00  0.00000000E+00  0.00000000E+00
  8.87170133E-02  1.10231719E-01  0.00000000E+00 -4.78172623E-03 -1.82741033E-03
  8.87170133E-02  1.10231719E-01  0.00000000E+00  4.78172623E-03 -1.82741033E-03
  0.00000000E+00  0.00000000E+00  5.32136137E-01  0.00000000E+00  0.00000000E+00
  0.00000000E+00  3.43286602E-01  0.00000000E+00  0.00000000E+00  0.00000000E+00
  0.00000000E+00  0.00000000E+00  0.00000000E+00 -2.07924827E-02  0.00000000E+00
  0.00000000E+00  0.00000000E+00  3.09490956E-01  0.00000000E+00  0.00000000E+00
  0.00000000E+00  1.94938462E-01  0.00000000E+00  0.00000000E+00  0.00000000E+00
  0.00000000E+00  0.00000000E+00  0.00000000E+00  1.85871676E-02  0.00000000E+00
  0.00000000E+00  0.00000000E+00  6.37338291E-03  0.00000000E+00  0.00000000E+00
  0.00000000E+00  0.00000000E+00  6.37338291E-03  0.00000000E+00  0.00000000E+00
  0.00000000E+00  0.00000000E+00  0.00000000E+00  5.29878039E-01  0.00000000E+00
  0.00000000E+00  0.00000000E+00  4.49737370E-01  0.00000000E+00  0.00000000E+00
  0.00000000E+00  0.00000000E+00  0.00000000E+00  0.00000000E+00 -1.64260354E-02
  0.00000000E+00  0.00000000E+00  0.00000000E+00 -1.56506309E-01  0.00000000E+00
  0.00000000E+00  0.00000000E+00  2.13172921E-02  0.00000000E+00  0.00000000E+00
  0.00000000E+00  0.00000000E+00  0.00000000E+00  0.00000000E+00  5.18485801E-02
 -1.76155797E-01 -3.39784193E-01  0.00000000E+00  4.76334776E-03 -3.37370171E-03
  1.76155797E-01  3.39784193E-01  0.00000000E+00  4.76334776E-03  3.37370171E-03
  0.00000000E+00  0.00000000E+00 -3.93839441E-01  0.00000000E+00  0.00000000E+00
  0.00000000E+00 -4.72413455E-01  0.00000000E+00  0.00000000E+00  0.00000000E+00
  0.00000000E+00  0.00000000E+00  0.00000000E+00  8.04956862E-04  0.00000000E+00
  0.00000000E+00  0.00000000E+00  4.82543717E-01  0.00000000E+00  0.00000000E+00
  0.00000000E+00  6.33109322E-01  0.00000000E+00  0.00000000E+00  0.00000000E+00
  0.00000000E+00  0.00000000E+00  0.00000000E+00 -3.33674664E-02  0.00000000E+00
  0.00000000E+00  0.00000000E+00  1.62564299E-02  0.00000000E+00  0.00000000E+00
  0.00000000E+00  0.00000000E+00  1.62564299E-02  0.00000000E+00  0.00000000E+00
  5.52077876E-03 -1.54623157E-02  0.00000000E+00  0.00000000E+00  7.18536772E-02
  9.70897079E-04  0.00000000E+00  0.00000000E+00  1.17796465E-01  3.37561483E-03
 -4.25386804E-03 -1.49282322E-03  0.00000000E+00  0.00000000E+00  0.00000000E+00
 -1.27286260E-01  9.30452717E-02  0.00000000E+00  0.00000000E+00 -1.92464758E-01
  2.15726228E+00  0.00000000E+00  0.00000000E+00 -7.41095421E-01 -4.96514878E-03
 -5.73927390E-03 -1.35516184E-02  0.00000000E+00  0.00000000E+00  0.00000000E+00
 -2.23468999E-02 -1.50682415E+00  0.00000000E+00  5.10155724E-03 -4.69620578E-03
 -2.23468999E-02 -1.50682415E+00  0.00000000E+00 -5.10155724E-03 -4.69620578E-03
  0.00000000E+00  0.00000000E+00  0.00000000E+00  1.44353115E-01  0.00000000E+00
  0.00000000E+00  0.00000000E+00  4.74220068E-01  0.00000000E+00  0.00000000E+00
  0.00000000E+00  0.00000000E+00  0.00000000E+00  0.00000000E+00 -5.15429125E-04
  0.00000000E+00  0.00000000E+00  0.00000000E+00 -4.05675908E-01  0.00000000E+00
  0.00000000E+00  0.00000000E+00 -1.73004526E+00  0.00000000E+00  0.00000000E+00
  0.00000000E+00  0.00000000E+00  0.00000000E+00  0.00000000E+00  1.99246393E-02
 -7.72833295E-02  1.82710782E+00  0.00000000E+00 -6.87590528E-03  4.33953723E-03
  7.72833295E-02 -1.82710782E+00  0.00000000E+00 -6.87590528E-03 -4.33953723E-03
 -1.10664973E-01  2.50900226E-03  0.00000000E+00  0.00000000E+00 -1.18117297E-01
  2.44785648E+00  0.00000000E+00  0.00000000E+00 -9.95901474E-01 -8.58248921E-02
 -9.14598975E-02  4.17989599E-03  0.00000000E+00  0.00000000E+00  0.00000000E+00
  3.98851189E-02  2.04067505E-02  0.00000000E+00  0.00000000E+00 -5.46372351E-02
 -1.81191737E+00  0.00000000E+00  0.00000000E+00 -2.11866172E+00  6.74540808E-04
 -4.26990099E-03 -2.37045209E-02  0.00000000E+00  0.00000000E+00  0.00000000E+00
 -6.05885470E-04 -1.58869395E-01  0.00000000E+00 -6.08374983E-03 -2.97400143E-03
 -6.05885470E-04 -1.58869395E-01  0.00000000E+00  6.08374983E-03 -2.97400143E-03
  0.00000000E+00  0.00000000E+00 -1.56910087E-02  0.00000000E+00  0.00000000E+00
  0.00000000E+00 -1.56409116E-01  0.00000000E+00  0.00000000E+00  0.00000000E+00
  0.00000000E+00  0.00000000E+00  0.00000000E+00  8.22869052E-02  0.00000000E+00
  0.00000000E+00  0.00000000E+00 -1.04727758E+00  0.00000000E+00  0.00000000E+00
  0.00000000E+00  1.16691761E+00  0.00000000E+00  0.00000000E+00  0.00000000E+00
  0.00000000E+00  0.00000000E+00  0.00000000E+00 -3.41896300E-03  0.00000000E+00
  0.00000000E+00  0.00000000E+00 -1.47128708E-02  0.00000000E+00  0.00000000E+00
  0.00000000E+00  0.00000000E+00 -1.47128708E-02  0.00000000E+00  0.00000000E+00
  1.75956531E-02 -2.46658917E-01  0.00000000E+00  0.00000000E+00 -2.54803224E-03
  1.81882806E-01  0.00000000E+00  0.00000000E+00  2.49130046E-01 -4.75197918E-02
 -8.68341159E-02 -5.17281268E-02  0.00000000E+00  0.00000000E+00  0.00000000E+00
 -6.46966614E-02 -7.67578747E-01  0.00000000E+00  0.00000000E+00  4.02471481E-01
  2.06642474E+00  0.00000000E+00  0.00000000E+00 -8.01822920E-01  5.21768550E-02
 -2.18448981E-01 -1.06993532E-01  0.00000000E+00  0.00000000E+00  0.00000000E+00
 -5.91717413E-01 -3.05142388E-01  0.00000000E+00 -1.79565901E-02 -1.57610228E-02
 -5.91717413E-01 -3.05142388E-01  0.00000000E+00  1.79565901E-02 -1.57610228E-02
  0.00000000E+00  0.00000000E+00  0.00000000E+00 -2.99146411E-01  0.00000000E+00
  0.00000000E+00  0.00000000E+00 -2.98236652E-01  0.00000000E+00  0.00000000E+00
  0.00000000E+00  0.00000000E+00  0.00000000E+00  0.00000000E+00  3.59036532E-02
  0.00000000E+00  0.00000000E+00  0.00000000E+00 -7.66692985E-01  0.00000000E+00
  0.00000000E+00  0.00000000E+00  2.33106344E+00  0.00000000E+00  0.00000000E+00
  0.00000000E+00  0.00000000E+00  0.00000000E+00  0.00000000E+00  2.16244118E-02
 -3.55717033E-01 -9.17606138E-01  0.00000000E+00  5.92260980E-02 -3.57947299E-03
  3.55717033E-01  9.17606138E-01  0.00000000E+00  5.92260980E-02  3.57947299E-03
  4.78258152E-02 -3.13140080E-01  0.00000000E+00  0.00000000E+00  1.08025865E-01
  3.04630640E-01  0.00000000E+00  0.00000000E+00  7.51701884E-01 -1.47273164E-01
 -1.32688710E-01  1.01474385E-01  0.00000000E+00  0.00000000E+00  0.00000000E+00
 -2.11308513E-02  8.03157765E-01  0.00000000E+00  0.00000000E+00  9.24427552E-01
 -3.89523056E-01  0.00000000E+00  0.00000000E+00 -5.48523252E-01  6.34997198E-02
  1.59152893E-01 -5.03810416E-02  0.00000000E+00  0.00000000E+00  0.00000000E+00
  1.34040082E-01 -9.84993934E-02  0.00000000E+00  4.66665849E-02  1.33821515E-02
  1.34040082E-01 -9.84993934E-02  0.00000000E+00 -4.66665849E-02  1.33821515E-02
  0.00000000E+00  0.00000000E+00  0.00000000E+00 -1.45290149E-01  0.00000000E+00
  0.00000000E+00  0.00000000E+00  2.37710437E-02  0.00000000E+00  0.00000000E+00
  0.00000000E+00  0.00000000E+00  0.00000000E+00  0.00000000E+00 -1.26193360E-01
  0.00000000E+00  0.00000000E+00  0.00000000E+00  6.93551590E-01  0.00000000E+00
  0.00000000E+00  0.00000000E+00 -9.27952899E-01  0.00000000E+00  0.00000000E+00
  0.00000000E+00  0.00000000E+00  0.00000000E+00  0.00000000E+00  2.49365578E-01
 -7.13002791E-01  1.16702292E+00  0.00000000E+00 -5.86703917E-02  9.16004945E-02
  7.13002791E-01 -1.16702292E+00  0.00000000E+00 -5.86703917E-02 -9.16004945E-02
 -2.40697659E-02 -3.53407653E-01  0.00000000E+00  0.00000000E+00 -6.72140365E-01
  4.03580940E-01  0.00000000E+00  0.00000000E+00  8.47843879E-01 -1.20454209E-01
 -1.28632994E-01 -3.42454743E-01  0.00000000E+00  0.00000000E+00  0.00000000E+00
  8.30163723E-02 -7.12125124E-01  0.00000000E+00  0.00000000E+00  1.69926889E-01
  1.75798691E+00  0.00000000E+00  0.00000000E+00 -2.22563232E-01 -1.99796095E-01
 -2.27785899E-03  2.68393257E-01  0.00000000E+00  0.00000000E+00  0.00000000E+00
  3.70627677E-01 -7.78609291E-01  0.00000000E+00  4.49173558E-02 -6.29694006E-02
  3.70627677E-01 -7.78609291E-01  0.00000000E+00 -4.49173558E-02 -6.29694006E-02
  2.50820068E-02  4.36865642E-01  0.00000000E+00  0.00000000E+00  3.83392587E-01
 -1.07729267E+00  0.00000000E+00  0.00000000E+00 -3.48107413E-01  1.80221804E-01
  1.61231567E-01  2.56057629E-01  0.00000000E+00  0.00000000E+00  0.00000000E+00
 -1.07387095E-02 -1.17413065E+00  0.00000000E+00  0.00000000E+00  4.35229072E-01
  2.53609460E+00  0.00000000E+00  0.00000000E+00 -5.41458915E-01 -8.32741830E-02
  1.22979630E-01 -2.50094384E-01  0.00000000E+00  0.00000000E+00  0.00000000E+00
  4.14715938E-01 -1.09600930E+00  0.00000000E+00  9.83381820E-02 -2.86037180E-03
  4.14715938E-01 -1.09600930E+00  0.00000000E+00 -9.83381820E-02 -2.86037180E-03
  0.00000000E+00  0.00000000E+00 -9.54821004E-01  0.00000000E+00  0.00000000E+00
  0.00000000E+00  1.24381136E+00  0.00000000E+00  0.00000000E+00  0.00000000E+00
  0.00000000E+00  0.00000000E+00  0.00000000E+00  3.32893842E-02  0.00000000E+00
  0.00000000E+00  0.00000000E+00  5.27372367E-02  0.00000000E+00  0.00000000E+00
  0.00000000E+00 -4.38675511E-01  0.00000000E+00  0.00000000E+00  0.00000000E+00
  0.00000000E+00  0.00000000E+00  0.00000000E+00 -5.50226836E-02  0.00000000E+00
  0.00000000E+00  0.00000000E+00 -2.63516866E-02  0.00000000E+00  0.00000000E+00
  0.00000000E+00  0.00000000E+00 -2.63516866E-02  0.00000000E+00  0.00000000E+00
  0.00000000E+00  0.00000000E+00  0.00000000E+00  8.97817192E-01  0.00000000E+00
  0.00000000E+00  0.00000000E+00 -1.47705485E+00  0.00000000E+00  0.00000000E+00
  0.00000000E+00  0.00000000E+00  0.00000000E+00  0.00000000E+00 -1.00077965E-01
  0.00000000E+00  0.00000000E+00  0.00000000E+00 -2.74820645E-01  0.00000000E+00
  0.00000000E+00  0.00000000E+00  1.51198581E+00  0.00000000E+00  0.00000000E+00
  0.00000000E+00  0.00000000E+00  0.00000000E+00  0.00000000E+00  1.61836860E-01
 -9.15414858E-02 -6.57509934E-01  0.00000000E+00  2.72250825E-02 -4.49716057E-04
  9.15414858E-02  6.57509934E-01  0.00000000E+00  2.72250825E-02  4.49716057E-04
 -1.02995528E-01 -1.70918812E+00  0.00000000E+00  0.00000000E+00  3.42096701E-01
  5.26323272E+00  0.00000000E+00  0.00000000E+00 -1.87013282E+00 -4.54101952E-01
 -3.55746534E-01 -5.66038289E-01  0.00000000E+00  0.00000000E+00  0.00000000E+00
 -3.88315603E-02 -1.02073136E-01  0.00000000E+00  0.00000000E+00 -1.56305113E-01
 -2.69455895E+00  0.00000000E+00  0.00000000E+00 -1.72775250E+00 -1.30481084E-02
  2.42743037E-01 -2.59459018E-01  0.00000000E+00  0.00000000E+00  0.00000000E+00
  9.86627649E-02 -5.31654064E-02  0.00000000E+00 -1.80982713E-02  7.42197327E-03
  9.86627649E-02 -5.31654064E-02  0.00000000E+00  1.80982713E-02  7.42197327E-03
  0.00000000E+00  0.00000000E+00  0.00000000E+00  0.00000000E+00  0.00000000E+00
  0.00000000E+00  0.00000000E+00  0.00000000E+00  0.00000000E+00  0.00000000E+00
  0.00000000E+00  0.00000000E+00  2.61859810E-01  0.00000000E+00  0.00000000E+00
  0.00000000E+00  0.00000000E+00  0.00000000E+00  0.00000000E+00  0.00000000E+00
  0.00000000E+00  0.00000000E+00  0.00000000E+00  0.00000000E+00  0.00000000E+00
  0.00000000E+00  0.00000000E+00  7.02219121E-01  0.00000000E+00  0.00000000E+00
  0.00000000E+00  0.00000000E+00  3.06645810E-01  0.00000000E+00  0.00000000E+00
  0.00000000E+00  0.00000000E+00 -3.06645810E-01  0.00000000E+00  0.00000000E+00
  0.00000000E+00  0.00000000E+00 -1.20257906E-01  0.00000000E+00  0.00000000E+00
  0.00000000E+00 -1.60013819E-01  0.00000000E+00  0.00000000E+00  0.00000000E+00
  0.00000000E+00  0.00000000E+00  0.00000000E+00 -4.88644526E-01  0.00000000E+00
  0.00000000E+00  0.00000000E+00 -1.57179872E-01  0.00000000E+00  0.00000000E+00
  0.00000000E+00  2.23472143E-01  0.00000000E+00  0.00000000E+00  0.00000000E+00
  0.00000000E+00  0.00000000E+00  0.00000000E+00  6.36810789E-01  0.00000000E+00
  0.00000000E+00  0.00000000E+00 -1.88311586E-01  0.00000000E+00  0.00000000E+00
  0.00000000E+00  0.00000000E+00 -1.88311586E-01  0.00000000E+00  0.00000000E+00
  4.40883219E-03  2.04794254E-01  0.00000000E+00  0.00000000E+00 -6.05229920E-02
 -5.11596063E-01  0.00000000E+00  0.00000000E+00  2.23979600E-01 -6.46792370E-01
  6.77327212E-01  7.99905041E-02  0.00000000E+00  0.00000000E+00  0.00000000E+00
 -2.33094130E-02 -1.98896064E-01  0.00000000E+00  0.00000000E+00  2.39912859E-02
  9.30127282E-01  0.00000000E+00  0.00000000E+00 -1.32808120E-01 -4.87752727E-01
  3.69115955E-01  9.10480826E-03  0.00000000E+00  0.00000000E+00  0.00000000E+00
 -2.92274446E-01 -1.46784999E-01  0.00000000E+00 -1.84817888E-02  1.20850870E-01
 -2.92274446E-01 -1.46784999E-01  0.00000000E+00  1.84817888E-02  1.20850870E-01
  0.00000000E+00  0.00000000E+00  0.00000000E+00  0.00000000E+00  0.00000000E+00
  0.00000000E+00  0.00000000E+00  0.00000000E+00  0.00000000E+00  0.00000000E+00
  0.00000000E+00  0.00000000E+00  9.27661954E-01  0.00000000E+00  0.00000000E+00
  0.00000000E+00  0.00000000E+00  0.00000000E+00  0.00000000E+00  0.00000000E+00
  0.00000000E+00  0.00000000E+00  0.00000000E+00  0.00000000E+00  0.00000000E+00
  0.00000000E+00  0.00000000E+00 -9.64197720E-02  0.00000000E+00  0.00000000E+00