water_q+0 ub3lyp/aug-cc-pvdz opt-stable-freq                            
Freq      UB3LYP                                                      Gen                 
Number of atoms                            I                3
Info1-9                                    I   N=           9
          10           4           0           0           0         101
           6          18        -502
Charge                                     I                0
Multiplicity                               I                1
Number of electrons                        I               10
Number of alpha electrons                  I                5
Number of beta electrons                   I                5
Number of basis functions                  I               41
Number of independent functions            I               41
Number of point charges in /Mol/           I                0
Number of translation vectors              I                0
Atomic numbers                             I   N=           3
           8           1           1
Nuclear charges                            R   N=           3
  8.00000000E+00  1.00000000E+00  1.00000000E+00
Current cartesian coordinates              R   N=           9
  1.59484498E-02  1.70042791E-02  2.38579956E-02 -7.72778442E-01  5.61446550E-01
  1.57501231E+00  1.29850109E+00  1.26951236E+00 -3.09113326E-01
Force Field                                I                0
Int Atom Types                             I   N=           3
           0           0           0
MM charges                                 R   N=           3
  0.00000000E+00  0.00000000E+00  0.00000000E+00
Integer atomic weights                     I   N=           3
          16           1           1
Real atomic weights                        R   N=           3
  1.59949146E+01  1.00782504E+00  1.00782504E+00
Atom fragment info                         I   N=           3
           0           0           0
Atom residue num                           I   N=           3
           0           0           0
Nuclear spins                              I   N=           3
           0           1           1
Nuclear ZEff                               R   N=           3
 -5.60000000E+00 -1.00000000E+00 -1.00000000E+00
Nuclear ZNuc                               R   N=           3
  8.00000000E+00  1.00000000E+00  1.00000000E+00
Nuclear QMom                               R   N=           3
  0.00000000E+00  0.00000000E+00  0.00000000E+00
Nuclear GFac                               R   N=           3
  0.00000000E+00  2.79284600E+00  2.79284600E+00
MicOpt                                     I   N=           3
          -1          -1          -1
Number of contracted shells                I               19
Number of primitive shells                 I               37
Pure/Cartesian d shells                    I                0
Pure/Cartesian f shells                    I                0
Highest angular momentum                   I                2
Largest degree of contraction              I                7
Shell types                                I   N=          19
           0           0           0           0           1           1
           1          -2          -2           0           0           0
           1           1           0           0           0           1
           1
Number of primitives per shell             I   N=          19
           7           7           1           1           3           1
           1           1           1           3           1           1
           1           1           3           1           1           1
           1
Shell to atom map                          I   N=          19
           1           1           1           1           1           1
           1           1           1           2           2           2
           2           2           3           3           3           3
           3
Primitive exponents                        R   N=          37
  1.17200000E+04  1.75900000E+03  4.00800000E+02  1.13700000E+02  3.70300000E+01
  1.32700000E+01  5.02500000E+00  1.17200000E+04  4.00800000E+02  1.13700000E+02
  3.70300000E+01  1.32700000E+01  5.02500000E+00  1.01300000E+00  3.02300000E-01
  7.89600000E-02  1.77000000E+01  3.85400000E+00  1.04600000E+00  2.75300000E-01
  6.85600000E-02  1.18500000E+00  3.32000000E-01  1.30100000E+01  1.96200000E+00
  4.44600000E-01  1.22000000E-01  2.97400000E-02  7.27000000E-01  1.41000000E-01
  1.30100000E+01  1.96200000E+00  4.44600000E-01  1.22000000E-01  2.97400000E-02
  7.27000000E-01  1.41000000E-01
Contraction coefficients                   R   N=          37
  7.11864434E-04  5.48520199E-03  2.79099296E-02  1.05133208E-01  2.84002490E-01
  4.51673946E-01  2.73208126E-01  7.69030046E-06  3.13484579E-04 -2.96614853E-03
 -1.08753543E-02 -1.20753817E-01 -1.06275264E-01  1.09597548E+00  1.00000000E+00
  1.00000000E+00  6.26791663E-02  3.33536566E-01  7.41239642E-01  1.00000000E+00
  1.00000000E+00  1.00000000E+00  1.00000000E+00  3.34987264E-02  2.34800801E-01
  8.13682958E-01  1.00000000E+00  1.00000000E+00  1.00000000E+00  1.00000000E+00
  3.34987264E-02  2.34800801E-01  8.13682958E-01  1.00000000E+00  1.00000000E+00
  1.00000000E+00  1.00000000E+00
Coordinates of each shell                  R   N=          57
  1.59484498E-02  1.70042791E-02  2.38579956E-02  1.59484498E-02  1.70042791E-02
  2.38579956E-02  1.59484498E-02  1.70042791E-02  2.38579956E-02  1.59484498E-02
  1.70042791E-02  2.38579956E-02  1.59484498E-02  1.70042791E-02  2.38579956E-02
  1.59484498E-02  1.70042791E-02  2.38579956E-02  1.59484498E-02  1.70042791E-02
  2.38579956E-02  1.59484498E-02  1.70042791E-02  2.38579956E-02  1.59484498E-02
  1.70042791E-02  2.38579956E-02 -7.72778442E-01  5.61446550E-01  1.57501231E+00
 -7.72778442E-01  5.61446550E-01  1.57501231E+00 -7.72778442E-01  5.61446550E-01
  1.57501231E+00 -7.72778442E-01  5.61446550E-01  1.57501231E+00 -7.72778442E-01
  5.61446550E-01  1.57501231E+00  1.29850109E+00  1.26951236E+00 -3.09113326E-01
  1.29850109E+00  1.26951236E+00 -3.09113326E-01  1.29850109E+00  1.26951236E+00
 -3.09113326E-01  1.29850109E+00  1.26951236E+00 -3.09113326E-01  1.29850109E+00
  1.26951236E+00 -3.09113326E-01
Constraint Structure                       R   N=           9
  1.59484498E-02  1.70042791E-02  2.38579956E-02 -7.72778442E-01  5.61446550E-01
  1.57501231E+00  1.29850109E+00  1.26951236E+00 -3.09113326E-01
Num ILSW                                   I              100
ILSW                                       I   N=         100
           1           0           0           0           2           0
           0           0           0           0         402          -1
           5           0           0           0           2           0
           0           0           0           0           1           0
           1           1           0           0           0           0
           0           0      100000           0          -1           0
           0           0           0           0           0           0
           0           0           0           1           0           0
           0           0           1           0           0           0
           0           0           4          41           0           0
           0           0           5           0           0           0
           0           0           0           3           0           0
           0           0           0           0           0           0
           0           0           0           0           0           0
           0           0           0           0           0           0
           0           0           0           0           0           0
           0           0           0           0
Num RLSW                                   I               41
RLSW                                       R   N=          41
  8.00000000E-01  7.20000000E-01  1.00000000E+00  8.10000000E-01  2.00000000E-01
  0.00000000E+00  0.00000000E+00  1.00000000E+00  0.00000000E+00  0.00000000E+00
  0.00000000E+00  0.00000000E+00  1.00000000E+00  0.00000000E+00  0.00000000E+00
  0.00000000E+00  0.00000000E+00  1.00000000E+00  0.00000000E+00  0.00000000E+00
  0.00000000E+00  0.00000000E+00  1.00000000E+00  0.00000000E+00  0.00000000E+00
  0.00000000E+00  0.00000000E+00  1.00000000E+00  0.00000000E+00  0.00000000E+00
  0.00000000E+00  0.00000000E+00  1.00000000E+00  0.00000000E+00  0.00000000E+00
  0.00000000E+00  0.00000000E+00  0.00000000E+00  1.00000000E+00  1.00000000E+00
  0.00000000E+00
MxBond                                     I                2
NBond                                      I   N=           3
           2           1           1
IBond                                      I   N=           6
           2           3           1           0           1           0
RBond                                      R   N=           6
  1.00000000E+00  1.00000000E+00  1.00000000E+00  0.00000000E+00  1.00000000E+00
  0.00000000E+00
Virial Ratio                               R      2.006343250493645E+00
SCF Energy                                 R     -7.644464352823877E+01
Total Energy                               R     -7.644464352823877E+01
S**2                                       R      2.664535259100376E-15
S**2 after annihilation                    R      3.552713678800514E-15
RMS Force                                  R      4.580816322413904E-06
RMS Density                                R      3.613489922100395E-10
External E-field                           R   N=          35
  0.00000000E+00  0.00000000E+00  0.00000000E+00  0.00000000E+00  0.00000000E+00
  0.00000000E+00  0.00000000E+00  0.00000000E+00  0.00000000E+00  0.00000000E+00
  0.00000000E+00  0.00000000E+00  0.00000000E+00  0.00000000E+00  0.00000000E+00
  0.00000000E+00  0.00000000E+00  0.00000000E+00  0.00000000E+00  0.00000000E+00
  0.00000000E+00  0.00000000E+00  0.00000000E+00  0.00000000E+00  0.00000000E+00
  0.00000000E+00  0.00000000E+00  0.00000000E+00  0.00000000E+00  0.00000000E+00
  0.00000000E+00  0.00000000E+00  0.00000000E+00  0.00000000E+00  0.00000000E+00
IOpCl                                      I                1
IROHF                                      I                0
Alpha Orbital Energies                     R   N=          41
 -1.91613530E+01 -1.02242041E+00 -5.39610358E-01 -3.99455039E-01 -3.23151746E-01
 -2.49567227E-02  2.25303504E-02  1.00079324E-01  1.18943974E-01  1.30215254E-01
  1.49117333E-01  1.77232557E-01  2.21178117E-01  2.74218450E-01  2.88907141E-01
  3.17332281E-01  4.35794938E-01  4.99846952E-01  5.20784245E-01  6.22005282E-01
  7.35581440E-01  9.02392421E-01  9.15613675E-01  9.50652567E-01  1.06173896E+00
  1.18756340E+00  1.21671046E+00  1.30596207E+00  1.73160752E+00  1.74881032E+00
  1.84077003E+00  2.10983920E+00  2.12916749E+00  2.27252442E+00  2.39850459E+00
  2.64269822E+00  3.28459533E+00  3.29763218E+00  3.31080763E+00  3.61363180E+00
  3.87000461E+00
Beta Orbital Energies                      R   N=          41
 -1.91613530E+01 -1.02242041E+00 -5.39610358E-01 -3.99455039E-01 -3.23151746E-01
 -2.49567227E-02  2.25303504E-02  1.00079324E-01  1.18943974E-01  1.30215254E-01
  1.49117333E-01  1.77232557E-01  2.21178117E-01  2.74218450E-01  2.88907141E-01
  3.17332281E-01  4.35794938E-01  4.99846952E-01  5.20784245E-01  6.22005282E-01
  7.35581440E-01  9.02392421E-01  9.15613675E-01  9.50652567E-01  1.06173896E+00
  1.18756340E+00  1.21671046E+00  1.30596207E+00  1.73160752E+00  1.74881032E+00
  1.84077003E+00  2.10983920E+00  2.12916749E+00  2.27252442E+00  2.39850459E+00
  2.64269822E+00  3.28459533E+00  3.29763218E+00  3.31080763E+00  3.61363180E+00
  3.87000461E+00
Alpha MO coefficients                      R   N=        1681
  9.96628441E-01  2.41483871E-02 -1.72215614E-02 -1.01530635E-02  3.93177979E-04
  1.43071103E-03  9.69902421E-04 -6.45361136E-04 -2.34836315E-03 -1.59199447E-03
 -3.41614450E-04 -1.24307874E-03 -8.42704103E-04  4.54692891E-05 -2.80640498E-04
  1.68972524E-05  6.79314769E-05  1.68810942E-04 -8.98922519E-05  5.49551272E-04
  6.25887137E-06 -1.56841169E-04 -3.08476979E-04  7.39702915E-04  8.19030112E-03
  6.97159056E-04 -2.68796386E-04  2.38820074E-04  5.83189720E-04  1.37029060E-03
 -1.31076779E-03 -3.06857085E-03  7.39703242E-04  8.19030069E-03  6.97159049E-04
  4.69408594E-04  4.91174970E-04 -8.83136127E-05 -2.44958017E-03 -2.61658852E-03
  4.06149232E-04 -2.07423986E-01  4.50199226E-01  3.53424701E-01  6.01036395E-02
  2.44933093E-02  8.91271371E-02  6.04208048E-02 -2.97816608E-03 -1.08370949E-02
 -7.34666063E-03  2.83327039E-03  1.03098002E-02  6.98918662E-03  8.29266767E-04
 -5.56900156E-03  3.69943864E-03 -6.88331604E-04  5.23847414E-03 -2.27553950E-03
  1.48248163E-02 -6.71493529E-03 -6.41340860E-05 -1.21860558E-02  2.14524786E-01
 -2.38722986E-02 -1.85173623E-03  2.17330939E-02 -7.72733343E-03 -3.52915508E-02
 -1.23518339E-03  5.06899082E-03  6.74719180E-03  2.14524743E-01 -2.38723451E-02
 -1.85174104E-03 -3.09274127E-02 -2.57292946E-02  1.26107329E-02  4.56626199E-03
  7.05221173E-03  1.46995568E-03 -4.58571131E-09  1.12142613E-08  2.94369456E-08
 -3.43447334E-08  3.69918795E-01  1.26456536E-01 -3.36494184E-01  1.03525880E-01
  3.53902631E-02 -9.41716301E-02  6.83562107E-03  2.33673794E-03 -6.21797808E-03
 -1.59789207E-02  6.40201987E-03 -1.01415264E-02 -1.00287964E-03  1.63656966E-02
  2.75776782E-02 -1.10491066E-02  1.75030458E-02  1.73085062E-03 -2.82452059E-02
 -3.63304371E-01 -1.37911086E-01 -3.33092319E-03 -7.84744299E-03  2.02310420E-02
  3.06044746E-02 -1.04170253E-02  5.98061075E-03  1.92474647E-02  3.63304363E-01
  1.37911132E-01  3.33092741E-03 -2.17472250E-02 -3.03479614E-02 -3.68388445E-03
 -1.62051296E-02 -1.50813792E-02  4.96919734E-03  7.69789166E-02 -1.65301349E-01
 -3.30637102E-01 -1.12898478E-01  1.22686731E-01  4.46436897E-01  3.02647103E-01
  6.49050600E-02  2.36178862E-01  1.60109633E-01  1.05529543E-02  3.84004650E-02
  2.60323128E-02 -4.54417594E-04  1.23024183E-03  1.16780108E-02 -7.41150319E-03
  5.85755034E-03 -2.70428286E-03  1.53552378E-02  9.04611901E-03 -9.75226138E-03
 -3.63900572E-03  2.09761647E-01  7.54894444E-02  7.58538814E-03  1.93387381E-02
  1.02989374E-02 -1.38144424E-02  7.45268010E-03  1.79803305E-02  9.02539845E-03
  2.09761644E-01  7.54894370E-02  7.58536806E-03 -1.71015431E-02 -2.15815437E-03
  1.93332159E-02  1.90897398E-03  1.60852147E-02  1.40682039E-02  2.87563247E-09
 -1.05496840E-08  1.58051404E-08 -1.13435930E-07  4.19271242E-01 -3.40849046E-01
  3.32825152E-01  2.75061222E-01 -2.23612696E-01  2.18348661E-01  5.94806037E-02
 -4.83551779E-02  4.72167932E-02  7.13129407E-03  6.85569271E-03  1.85687389E-03
  8.32236642E-03  5.94157025E-03  8.84320178E-03  8.50144616E-03  2.30262924E-03
  1.03202044E-02  7.36788066E-03  1.51745694E-08 -1.71451405E-07 -3.00490465E-08
  1.80385443E-02 -1.46645357E-02  1.43193245E-02  1.91323894E-02 -1.55538635E-02
  1.51878008E-02  1.42977413E-08  2.68512086E-07  3.85992623E-08  1.80385382E-02
 -1.46645455E-02  1.43193259E-02  1.91323722E-02 -1.55538634E-02  1.51877305E-02
  4.91223888E-02 -1.24321875E-01 -2.57777617E-01 -4.94146427E-01 -3.21447124E-02
 -1.16969182E-01 -7.92953010E-02 -3.06175348E-02 -1.11412096E-01 -7.55280438E-02
 -6.85200497E-03 -2.49314531E-02 -1.69007321E-02  3.23275200E-04 -1.57490375E-03
 -3.04308048E-03  2.28064271E-03 -8.14268260E-04  6.59273065E-04 -3.99590542E-03
 -3.04943271E-04  1.29745719E-03  2.09734913E-03  5.45404183E-02  2.65684737E-01
  5.50564321E-01 -1.04120822E-02  3.89250680E-03  1.71028241E-02 -1.48167267E-02
  9.17994465E-03  2.80661241E-02  5.45404656E-02  2.65685378E-01  5.50568782E-01
  1.49325153E-02  1.25565658E-02 -5.95171158E-03  2.34578930E-02  2.22638098E-02
 -6.75010966E-03 -4.79694355E-08  2.49797300E-07 -4.85102974E-07 -6.58243058E-06
 -1.14690688E-01 -3.92067007E-02  1.04327769E-01 -1.20539662E-01 -4.12065435E-02
  1.09647877E-01 -3.64247910E-01 -1.24519821E-01  3.31334447E-01  4.57565119E-04
 -1.83326333E-04  2.90419210E-04  2.87090240E-05 -4.68644742E-04  5.86974923E-03
 -2.35165711E-03  3.72537505E-03  3.68420526E-04 -6.01187869E-03 -1.60450454E-02
 -4.14794726E-01 -2.41841631E+00  3.10588255E-03 -5.95089464E-03 -1.00069469E-02
  1.18617961E-02  2.45178244E-02  1.01659713E-02  1.60450039E-02  4.14800236E-01
  2.41841784E+00  7.35970744E-03  9.52847350E-03  4.86912180E-04 -5.52151765E-04
 -2.06520011E-02 -2.04544131E-02  1.75306251E-02 -1.01296094E-01  2.19098057E-01
  3.42387414E+00 -5.53520825E-02 -2.01416251E-01 -1.36542751E-01 -1.55179869E-02
 -5.64677216E-02 -3.82799954E-02  3.17655392E-01  1.15589430E+00  7.83597775E-01
  5.84906702E-04 -2.65767292E-03 -6.94891674E-03  4.94646991E-03 -2.39226722E-03
  4.71943859E-03 -3.14749408E-02  1.94056907E-02 -2.98068049E-03  2.87632059E-02
  3.88550892E-02 -1.16316284E+00 -8.15343655E-01 -1.91154867E-02  1.12556111E-02
  3.56074076E-02 -1.74169766E-01  9.74427045E-02  3.19199472E-01  3.88553756E-02
 -1.16316516E+00 -8.15346592E-01  2.99073816E-02  2.80141208E-02 -8.98586180E-03
  2.69399498E-01  2.49077653E-01 -8.42888762E-02  3.26839916E-08 -1.84166511E-07
  3.58453238E-07  3.04671585E-06 -1.58148084E-01  1.28567243E-01 -1.25540989E-01
 -1.79563364E-01  1.45976942E-01 -1.42540451E-01  8.60758709E-01 -6.99757732E-01
  6.83285656E-01 -6.97669202E-03 -6.70709310E-03 -1.81662933E-03 -8.14195979E-03
 -5.81277728E-03  1.85814514E-02  1.78633190E-02  4.83835074E-03  2.16849724E-02
  1.54815194E-02  1.51397923E-07 -1.73365414E-06 -2.18402398E-07  5.28799607E-03
 -4.29888864E-03  4.19778319E-03 -1.10208758E-01  8.95941424E-02 -8.74838880E-02
  7.41479832E-08  2.13369227E-07 -1.58661026E-06  5.28805268E-03 -4.29892064E-03
  4.19770781E-03 -1.10208406E-01  8.95945862E-02 -8.74850606E-02  6.37332086E-02
 -1.78081489E-01 -2.38789876E-01  1.27005707E+00 -2.00545446E-03 -7.29678279E-03
 -4.94621895E-03  2.64381993E-02  9.62044188E-02  6.52187584E-02 -2.04231101E-01
 -7.43166308E-01 -5.03807247E-01  6.77178003E-04 -4.80164419E-03  4.93254835E-03
 -1.64846384E-03  5.49510220E-03  3.92634278E-03 -2.15384307E-02 -1.88239614E-02
  1.73929750E-02  1.66012819E-03  1.09269201E-01  2.78235072E-01 -5.80881467E-01
 -1.14549009E-02 -1.30754590E-03  1.30910442E-02 -1.51568199E-01  1.49436056E-01
  3.43975050E-01  1.09269389E-01  2.78233422E-01 -5.80887187E-01  1.30371834E-02
  7.06509533E-03 -9.18797596E-03  2.73650349E-01  2.94797841E-01 -4.28217123E-02
 -9.97152331E-08  2.94022006E-07  3.22144436E-07 -2.91398126E-06 -2.47146319E-01
 -8.44864965E-02  2.24815320E-01 -5.40545350E-02 -1.84782295E-02  4.91705858E-02
  1.04814809E+00  3.58308751E-01 -9.53441014E-01 -4.79902518E-03  1.92275699E-03
 -3.04584764E-03 -3.01202788E-04  4.91517987E-03 -2.90404365E-02  1.16352062E-02
 -1.84314199E-02 -1.82268310E-03  2.97433687E-02 -1.00733641E-01  7.72216352E-01
  2.53075343E+00  1.43445394E-02 -1.56064723E-02 -3.40530334E-02  2.57124437E-01
 -3.12203661E-01 -6.43639045E-01  1.00733176E-01 -7.72217339E-01 -2.53075014E+00
  2.67862331E-02  2.96669758E-02 -3.36133904E-03  4.99830944E-01  5.70967578E-01
 -4.49211787E-02 -1.08765777E-08  4.05762000E-08 -3.76044129E-08 -1.99118440E-06
  3.44139665E-02  1.17643544E-02 -3.13043894E-02  2.17524048E-01  7.43603441E-02
 -1.97869332E-01  1.86077320E+00  6.36104304E-01 -1.69264039E+00  1.28140005E-02
 -5.13398167E-03  8.13280622E-03  8.04243512E-04 -1.31241675E-02 -4.00221317E-02
  1.60350466E-02 -2.54013008E-02 -2.51190180E-03  4.09908688E-02  1.88496970E-01
  2.18529902E+00  1.65530734E+00  1.91241709E-02  4.33082941E-03 -1.96561386E-02
  8.50990429E-02  4.43412609E-02 -6.17918170E-02 -1.88496965E-01 -2.18529748E+00
 -1.65530664E+00  2.04627996E-02  9.20194353E-03 -1.63539059E-02  7.58479311E-02
  1.06781611E-02 -8.46127184E-02  1.36062626E-04 -3.31161509E-02  1.69818265E-01
  4.65612965E+00  2.04870760E-02  7.45488074E-02  5.05378402E-02  5.01470534E-02
  1.82475726E-01  1.23703332E-01  1.30528380E-01  4.74968574E-01  3.21989817E-01
 -4.40768162E-03  2.51128697E-02  1.40997639E-02 -1.55288312E-02 -6.34153115E-03
  1.16288453E-02 -6.59358960E-02 -3.96051027E-02  4.23369588E-02  1.51989619E-02
 -1.48079855E-01 -2.26831801E+00 -3.90077026E-01  8.73503021E-03  2.47436582E-02
  1.43363970E-02  3.10590928E-01  4.71129231E-01  9.12225343E-02 -1.48080044E-01
 -2.26832075E+00 -3.90075374E-01  4.46346732E-03  2.32834244E-02  1.82220033E-02
 -8.92050786E-02  3.34457596E-01  4.54896543E-01 -3.52620797E-08  3.90640047E-08
  3.78725931E-07 -9.43151075E-06 -5.81093133E-08 -5.32940491E-07 -2.10220405E-07
  5.60595439E-08 -1.66978695E-06 -1.07689019E-06 -8.61360541E-07 -4.34710657E-06
 -2.73262396E-06  2.08769666E-02  1.93343688E-03 -1.68735967E-02 -2.13312302E-02
  7.86382896E-03 -4.82286452E-02 -4.46653080E-03  3.89802225E-02  4.92780967E-02
 -1.81664596E-02  7.40243693E-08  6.79080052E-06  9.17942508E-07  1.03977882E-02
 -8.45279322E-03  8.25376213E-03  7.24032086E-01 -5.88601795E-01  5.74747626E-01
  1.28400070E-07  2.84720741E-06  5.89160361E-07 -1.03977628E-02  8.45290247E-03
 -8.25374076E-03 -7.24030120E-01  5.88607046E-01 -5.74747017E-01  7.22947993E-03
 -2.33364825E-02  9.06756063E-03  4.60832900E+00  4.67607418E-02  1.70154012E-01
  1.15350330E-01  1.52174771E-01  5.53736857E-01  3.75387782E-01  4.35221058E-01
  1.58369617E+00  1.07361599E+00  1.80575499E-03 -9.37762001E-03 -1.26268762E-02
  1.02548427E-02 -1.76477851E-03 -7.66558633E-03  4.13761252E-02  4.18150233E-02
 -3.68344826E-02 -1.53689146E-05 -9.03149243E-02 -2.34404776E+00 -3.63912984E-01
 -3.18200193E-02 -1.64815105E-02  2.32060277E-02 -4.28994056E-01 -6.15907809E-01
 -9.03334503E-02 -9.03150807E-02 -2.34405072E+00 -3.63910284E-01  2.84206472E-02
  4.11183039E-03 -3.15916187E-02  1.44337549E-01 -4.19909791E-01 -6.11868421E-01
  2.39906484E-09  3.15372013E-08 -2.25413851E-07 -5.90787756E-06  1.10485145E-01
 -8.98197704E-02  8.77050314E-02  3.79245368E-01 -3.08310348E-01  3.01051533E-01
  8.37978853E-01 -6.81241719E-01  6.65201774E-01 -1.03134855E-02 -9.91489790E-03
 -2.68545211E-03 -1.20360291E-02 -8.59286020E-03  1.46730127E-02  1.41059112E-02
  3.82059245E-03  1.71236915E-02  1.22250991E-02  1.42823298E-07  3.31925591E-06
  6.92201041E-07 -8.16988561E-03  6.64176745E-03 -6.48543824E-03 -7.75918308E-01
  6.30787827E-01 -6.15938394E-01  1.76959015E-07  2.68064264E-06  2.19183389E-07
 -8.16989451E-03  6.64175140E-03 -6.48539838E-03 -7.75917853E-01  6.30787273E-01
 -6.15937208E-01  1.24736692E-08  2.27790716E-09 -3.37351101E-07  5.82091275E-07
  8.97343583E-02  3.06756760E-02 -8.16261870E-02  1.67462207E-01  5.72469360E-02
 -1.52330796E-01  1.62788644E+00  5.56492599E-01 -1.48079601E+00 -1.00881445E-02
  4.04186104E-03 -6.40277069E-03 -6.33161454E-04  1.03323313E-02  2.78408470E-02
 -1.11544881E-02  1.76700714E-02  1.74737553E-03 -2.85147291E-02 -1.15907986E-03
 -6.36858307E-01  1.00698336E+00  5.94799759E-03  8.75892880E-03  1.47720598E-03
 -1.67454567E+00 -1.43768948E+00  6.37133060E-01  1.15892798E-03  6.36857909E-01
 -1.00698340E+00  1.86810394E-03 -6.08701300E-03 -8.58711570E-03 -1.14967477E+00
  4.72230747E-01  1.93190004E+00 -1.08638657E-01  9.37348449E-02  2.46374219E+00
  5.25901131E+00  5.08733350E-02  1.85118834E-01  1.25494956E-01  1.02327770E-01
  3.72351921E-01  2.52423092E-01  1.12610040E-01  4.09767500E-01  2.77787687E-01
 -3.04733483E-04  8.83049721E-04  7.39463794E-03 -4.72201569E-03  3.64997587E-03
 -8.83111535E-03  5.48813011E-02 -6.09884733E-03 -1.15929375E-02 -3.45811211E-02
 -2.24118827E-01 -2.86980929E+00 -5.91076144E-01  1.37091392E-02  1.61200639E-04
 -1.71048282E-02 -6.79792211E-01  6.01361302E-01  1.47221651E+00 -2.24119385E-01
 -2.86981564E+00 -5.91077003E-01 -1.64543232E-02 -1.01502253E-02  1.03331348E-02
  1.18555841E+00  1.23903160E+00 -2.24585695E-01  7.81009022E-08 -6.19946336E-08
 -1.84348138E-06 -5.50941708E-06  2.57608517E-01  8.80631820E-02 -2.34332092E-01
  9.90235578E-01  3.38511238E-01 -9.00761581E-01  1.34927289E+00  4.61247444E-01
 -1.22735770E+00 -2.28085335E-03  9.13829224E-04 -1.44761325E-03 -1.43143808E-04
  2.33606541E-03  3.44170396E-02 -1.37894176E-02  2.18439046E-02  2.16008892E-03
 -3.52501476E-02  2.51215126E-01  6.84263713E+00  1.40399833E+00 -7.70061138E-03
 -2.80237002E-03  6.83079999E-03  1.85263266E+00 -4.50800529E-01 -2.79549383E+00
 -2.51214670E-01 -6.84263131E+00 -1.40399718E+00 -7.59746235E-03 -2.42727849E-03
  7.08505066E-03  2.51027556E+00  1.94225719E+00 -1.17319766E+00  2.40728700E-08
 -2.51426698E-08 -4.91279916E-07 -1.07816175E-06  1.21007117E-01  4.13661856E-02
 -1.10073327E-01 -6.10497202E-01 -2.08698254E-01  5.55334680E-01 -1.47144200E+00
 -5.03011700E-01  1.33848733E+00  4.00968834E-02 -1.60649746E-02  2.54487540E-02
  2.51658529E-03 -4.10674541E-02  3.97165742E-01 -1.59126039E-01  2.52073813E-01
  2.49271762E-02 -4.06779249E-01  4.33077596E-01 -5.34071329E+00 -6.36303240E-01
 -4.73337284E-02  8.98847076E-02  1.51679623E-01 -8.89048825E-01  6.19920590E-03
  1.12631405E+00 -4.33077625E-01  5.34071453E+00  6.36303500E-01 -1.11674779E-01
 -1.44241661E-01 -7.03862225E-03 -1.07717291E+00 -6.78351380E-01  6.62245999E-01
 -5.91378100E-03 -1.78261435E-01  1.25467217E+00  5.73328694E+00 -1.40375580E-02
 -5.10804067E-02 -3.46282612E-02  6.93484958E-02  2.52347734E-01  1.71070773E-01
  3.14474180E-01  1.14431976E+00  7.75753699E-01  6.07207765E-03 -3.81191049E-02
  7.08562142E-03  6.32732374E-03  2.56187607E-02  8.33360450E-02 -5.29343708E-01
  1.43744255E-01  6.04142649E-02  3.81215767E-01  5.52395102E-01 -3.84466375E+00
 -2.74276693E-01 -1.01622321E-01  2.05328124E-02  1.49044962E-01 -1.19243603E-01
  2.69248659E-01  4.25955102E-01  5.52395143E-01 -3.84466326E+00 -2.74276097E-01
  1.35151330E-01  1.01473753E-01 -6.63346274E-02  3.07301167E-01  4.15062793E-01
  3.79515577E-02 -7.95830333E-10 -5.19635775E-09  4.61691689E-08 -1.45728415E-07
  1.66248546E-01 -1.35152774E-01  1.31971066E-01 -4.47237399E-02  3.63584789E-02
 -3.55024943E-02  5.18486333E-01 -4.21506700E-01  4.11583825E-01 -2.91881750E-03
 -2.80601915E-03 -7.60013910E-04 -3.40632298E-03 -2.43187148E-03  5.40336578E-01
  5.19454661E-01  1.40695053E-01  6.30584426E-01  4.50191672E-01  5.75676054E-09
  3.55203564E-07  5.69806336E-08  1.20164737E-02 -9.76886291E-03  9.53892144E-03
 -3.85311725E-01  3.13241705E-01 -3.05867680E-01 -1.49836549E-08 -1.95498208E-07
 -4.68039432E-08  1.20165092E-02 -9.76889083E-03  9.53891538E-03 -3.85311889E-01
  3.13241801E-01 -3.05867776E-01 -1.95342200E-02  3.14714639E-02  6.55271499E-01
  1.12652581E+00 -3.92786987E-02 -1.42928583E-01 -9.68937302E-02  4.28891664E-02
  1.56066552E-01  1.05800154E-01 -1.13323861E-01 -4.12366479E-01 -2.79550288E-01
  3.13314399E-03 -1.97621599E-02  4.35603418E-03  2.86708594E-03  1.36648050E-02
  5.41310798E-02 -2.19660499E-01 -8.40987305E-01  5.70238534E-01 -3.47421175E-01
  1.21318898E-01 -7.89143444E-01 -7.69853192E-02 -7.32312170E-02 -2.76517899E-02
  6.39334536E-02  1.68654426E-01  5.78501557E-01  3.79988713E-01  1.21318908E-01
 -7.89143281E-01 -7.69853064E-02  7.16432570E-02  2.18734720E-02 -6.78506759E-02
  1.47299192E-01  5.71201228E-01  3.99414442E-01  8.26436998E-10 -7.21734760E-09
  4.90231928E-09  2.46994611E-07 -8.98563050E-08  6.57087525E-08 -2.35444116E-08
  5.82721268E-08 -5.92459758E-08  4.88554581E-11 -1.67194237E-07  1.47850611E-07
 -5.64506784E-08  3.04818574E-04  2.82295892E-05 -2.46370303E-04 -3.11452931E-04
  1.14818878E-04 -7.21834887E-01 -6.68481083E-02  5.83416492E-01  7.37538595E-01
 -2.71896951E-01  7.37201265E-09 -3.84665748E-07 -4.67168932E-08 -3.04511456E-02
  2.47554299E-02 -2.41726868E-02  5.12994213E-01 -4.17041781E-01  4.07224269E-01
  1.20757619E-08  9.73205460E-08  2.83512105E-08  3.04511557E-02 -2.47554407E-02
  2.41726771E-02 -5.12994219E-01  4.17041644E-01 -4.07223918E-01 -1.62816542E-02
 -1.58986714E-01  1.49072127E+00  3.51361154E+00 -1.24327448E-01 -4.52406897E-01
 -3.06694229E-01  2.74031686E-01  9.97155768E-01  6.75988627E-01  1.79099709E-01
  6.51714445E-01  4.41808193E-01  8.81129535E-03 -5.61166467E-02  1.63118318E-02
  5.75496232E-03  4.10158611E-02 -1.21566016E-01  7.16073414E-01  2.12470958E-01
 -3.28041715E-01 -2.87248266E-01  4.57280858E-01 -2.52780987E+00 -1.82255801E-01
 -1.47400197E-01  7.27556468E-02  2.60194767E-01 -5.15340019E-01 -1.37051177E-01
  5.08836387E-01  4.57280997E-01 -2.52780963E+00 -1.82255497E-01  2.22101356E-01
  1.99069603E-01 -7.59198216E-02  5.39069181E-01  2.23398257E-01 -4.50299914E-01
 -8.78936518E-10 -2.00146138E-09  2.02878473E-08 -4.18955039E-08 -6.26163242E-01
  5.09043238E-01 -4.97059877E-01  1.07523900E+00 -8.74122247E-01  8.53544640E-01
  1.14270912E-01 -9.28973794E-02  9.07105315E-02  2.99309906E-03  2.87741297E-03
  7.79359471E-04  3.49299622E-03  2.49374359E-03  2.25048651E-01  2.16351374E-01
  5.85989854E-02  2.62636395E-01  1.87503640E-01  5.56881773E-08 -6.67488919E-07
 -4.23211470E-08  3.84214591E-03 -3.12349600E-03  3.05002549E-03 -4.18687573E-01
  3.40374589E-01 -3.32361499E-01 -4.49857742E-08  6.96045987E-07  4.81458740E-08
  3.84216961E-03 -3.12357309E-03  3.05001005E-03 -4.18687516E-01  3.40374205E-01
 -3.32361610E-01  1.40812648E-08 -8.19686537E-08 -3.43864188E-07 -1.36670215E-06
 -4.30796088E-01 -1.47267117E-01  3.91870835E-01  1.46436564E+00  5.00591990E-01
 -1.33205071E+00  8.27244667E-01  2.82792895E-01 -7.52497695E-01 -5.31433548E-02
  2.12921017E-02 -3.37291184E-02 -3.33541507E-03  5.44297211E-02  4.83321113E-01
 -1.93644376E-01  3.06754941E-01  3.03345291E-02 -4.95020102E-01 -3.56329112E-01
  4.72184434E+00  3.01039677E-01  1.18742768E-01 -1.40833031E-01 -2.93812626E-01
  7.06980396E-01 -6.13668729E-01 -1.51907121E+00  3.56329479E-01 -4.72184281E+00
 -3.01039502E-01  2.28797884E-01  2.59639472E-01 -2.23254400E-02  1.22584807E+00
  1.27440529E+00 -2.39113573E-01 -5.15890324E-02  5.16498670E-01 -4.18459646E-01
  1.55392367E+00 -1.46189018E-01 -5.31957352E-01 -3.60622773E-01  3.52058646E-01
  1.28108217E+00  8.68466846E-01  4.02720199E-02  1.46542432E-01  9.93433061E-02